/*--------------------------------*- C++ -*----------------------------------*\
  =========                 |
  \\      /  F ield         | OpenFOAM: The Open Source CFD Toolbox
   \\    /   O peration     | Website:  https://openfoam.org
    \\  /    A nd           | Version:  7
     \\/     M anipulation  |
\*---------------------------------------------------------------------------*/
FoamFile
{
    version     2.0;
    format      ascii;
    class       surfaceScalarField;
    location    "0";
    object      phi;
}
// * * * * * * * * * * * * * * * * * * * * * * * * * * * * * * * * * * * * * //

dimensions      [0 3 -1 0 0 0 0];

internalField   nonuniform List<scalar> 
69941
(
-1.48608e-06
-7.49442e-07
-1.55305e-05
-1.04645e-06
7.06977e-08
-6.94039e-07
1.90795e-07
1.9245e-05
1.47359e-05
-5.43234e-07
-3.55093e-06
4.441e-06
2.71211e-06
-1.58076e-05
-4.38011e-07
-7.42048e-07
-8.07182e-07
1.35949e-05
-3.29915e-06
-8.54479e-07
3.52953e-06
-1.38456e-05
-1.6716e-06
-1.10607e-06
-8.39478e-07
6.66224e-07
7.43283e-07
1.10038e-06
1.98205e-06
1.29189e-05
-1.77647e-06
-5.75082e-06
6.68594e-06
3.09678e-06
-1.51743e-05
-8.57304e-07
4.23987e-06
-1.9375e-06
4.74385e-07
-2.76928e-06
8.49818e-07
-4.44438e-06
1.59182e-05
-6.65774e-06
6.61746e-06
-1.58581e-05
4.42452e-06
-1.40734e-06
3.01266e-06
-1.87104e-06
2.22458e-06
-2.96832e-06
1.00946e-06
-4.03549e-06
1.41493e-05
-6.37412e-06
5.34839e-06
-1.38354e-05
4.74732e-06
1.34103e-06
-5.28289e-07
7.56919e-07
-1.25282e-06
-3.16841e-07
7.65202e-06
-2.4395e-06
5.65181e-06
-2.58883e-06
-3.22824e-06
-1.60876e-06
-3.4385e-06
3.41639e-06
-4.64819e-06
-6.74238e-06
2.96002e-06
3.45607e-06
1.55808e-06
-1.0017e-07
-3.93856e-07
1.27425e-05
1.49992e-06
-1.32506e-05
1.01777e-06
-4.07716e-07
-3.67921e-07
-3.52174e-07
-1.56211e-07
-4.84718e-08
-1.83054e-07
-2.65467e-08
2.59519e-06
3.87511e-07
2.41205e-08
-2.52526e-06
-4.55019e-07
-9.1475e-07
-3.19332e-08
6.75341e-07
1.27719e-07
1.39516e-07
4.10685e-09
3.41186e-07
3.255e-06
1.57569e-05
1.76156e-07
-1.24407e-06
-1.82741e-05
-6.23898e-08
-1.49247e-08
6.62586e-08
2.4121e-06
1.11965e-07
-5.25495e-08
-3.408e-08
-2.43792e-06
4.82263e-10
-2.66396e-06
-1.98721e-06
3.20345e-07
-3.91128e-07
1.58966e-06
3.1323e-06
-1.64337e-06
-7.44689e-07
9.92366e-07
1.57453e-07
1.18411e-06
5.41327e-08
-1.90582e-06
-6.2063e-08
-9.52458e-06
7.63049e-06
1.36558e-06
2.49639e-06
-7.28326e-06
-3.74511e-06
-1.9457e-06
1.13913e-05
3.30736e-06
8.74689e-06
-3.62095e-06
-3.46785e-06
-3.38264e-06
-4.5983e-07
-8.23237e-06
-1.24196e-06
6.50401e-06
2.22854e-06
5.89648e-06
-4.13875e-07
-4.56628e-07
-2.67932e-07
-1.1168e-06
-1.23869e-06
-1.20095e-06
-1.60928e-07
-1.52019e-06
1.1872e-06
2.38192e-07
2.55726e-07
-5.81883e-07
-4.44113e-06
-1.09572e-06
4.22713e-06
2.3459e-06
-5.40502e-07
-2.72768e-07
-6.3284e-07
-9.69909e-07
-4.88763e-07
-7.76353e-07
7.91464e-07
7.0807e-07
7.28267e-07
9.99043e-07
-3.79053e-07
-1.04483e-06
-2.94179e-06
2.52396e-06
1.29704e-06
1.58153e-06
-3.18053e-07
-3.5718e-07
-3.61636e-07
-1.04057e-06
-2.35432e-06
-8.22333e-07
1.77052e-06
1.23171e-06
1.21499e-06
1.55885e-05
4.82296e-06
-3.52514e-08
-3.72658e-06
-3.11243e-06
-1.39526e-05
4.28725e-07
-5.44064e-07
5.30805e-07
5.0139e-06
1.60513e-07
-4.51462e-07
-2.38585e-07
-6.56758e-07
-3.82761e-06
-4.50542e-07
-2.43235e-06
-4.89281e-07
1.74214e-06
2.35819e-06
-4.74372e-07
-5.19926e-07
-5.95362e-07
3.08276e-07
1.97311e-07
3.55919e-07
-8.37492e-08
-1.53963e-06
-1.37967e-06
3.9434e-07
7.06643e-06
-1.68533e-08
-7.31817e-08
-1.64406e-08
-2.00888e-06
-1.61122e-06
-1.47254e-06
-1.3905e-06
-1.45006e-06
-1.31699e-06
1.52967e-06
1.07612e-06
1.19199e-06
1.10117e-06
-5.31267e-07
-7.40355e-07
3.65426e-07
1.02995e-06
-1.23755e-07
-1.12602e-06
-1.37957e-07
-3.25601e-06
3.31546e-06
6.30269e-07
3.90169e-06
-1.04613e-06
-1.16447e-06
-1.11683e-06
-9.6787e-06
-1.50945e-06
-1.048e-05
8.10498e-06
2.77588e-06
1.07873e-05
-8.05598e-07
-6.66515e-06
-6.803e-06
4.94733e-06
1.8779e-06
7.44852e-06
-4.64166e-06
-8.50943e-07
3.02823e-06
1.19637e-06
5.07259e-06
-3.80458e-06
-5.37021e-07
1.20728e-07
5.86793e-07
-1.705e-07
-3.4817e-06
-7.99615e-07
-8.62458e-07
3.60585e-06
-5.13655e-07
-6.09421e-07
5.40045e-07
6.80109e-07
8.75741e-07
2.42063e-07
6.23431e-08
2.60719e-07
-8.88752e-06
-2.32473e-06
-3.64151e-06
6.60637e-06
9.54039e-06
-1.66006e-06
-1.68024e-06
-1.55616e-06
1.09937e-06
7.51339e-07
8.49188e-07
9.0358e-07
-6.49687e-06
-5.53108e-06
4.70767e-06
3.13626e-06
6.63473e-06
-2.45071e-06
-1.12036e-06
-1.44092e-06
-3.42178e-06
2.73318e-06
4.83175e-06
-1.05913e-06
-1.04271e-06
-1.02026e-06
3.38001e-07
5.10767e-07
2.72781e-07
4.18671e-07
-1.63567e-07
-7.19611e-07
1.06649e-07
8.31604e-07
-5.50753e-08
-3.51794e-07
-2.43662e-07
-5.00889e-08
2.7512e-07
3.70423e-07
-1.58455e-06
-1.4634e-06
-7.85665e-07
1.03656e-06
1.18611e-06
1.61094e-06
-7.48254e-07
-2.09547e-07
-4.81974e-07
7.21079e-07
9.08035e-07
-3.11058e-07
-1.951e-07
-2.23174e-07
1.84771e-07
1.51387e-07
6.6291e-08
1.37544e-07
9.30815e-07
-1.96048e-07
-8.34354e-07
-3.27353e-08
1.32316e-07
2.78468e-06
3.44428e-06
6.76827e-07
-2.39394e-06
-1.44954e-05
3.28265e-06
3.96389e-06
3.20174e-06
4.19441e-07
7.87852e-07
6.75172e-07
-6.11074e-07
-7.13808e-07
4.18901e-09
-1.02645e-06
1.97186e-07
3.99846e-06
5.78554e-07
-1.26961e-07
-3.71882e-06
-9.28421e-07
-7.50407e-06
-8.34599e-08
-8.75269e-07
2.83007e-06
6.36112e-07
7.51904e-06
-8.61563e-08
-4.97079e-08
-1.87911e-08
-9.27008e-07
-7.62411e-07
-6.7835e-07
-1.73143e-06
4.36019e-08
-5.66995e-07
8.20867e-07
1.38577e-07
1.29538e-06
-1.11988e-05
-5.09597e-07
-1.66799e-06
4.70295e-06
2.48786e-06
1.22158e-05
-4.44964e-07
-4.92787e-07
-2.91751e-07
-1.57045e-06
-1.68519e-06
-1.54511e-06
1.92428e-06
5.11676e-06
3.17229e-05
-7.56108e-07
-1.05377e-06
-1.01338e-06
-8.42571e-07
-2.93142e-06
-2.99415e-06
-2.12289e-06
-2.15928e-06
1.8594e-06
1.38684e-06
1.3253e-06
-7.7056e-06
-6.90384e-06
-7.89869e-06
-6.95378e-06
-5.48843e-06
-8.75763e-07
1.57277e-06
9.43649e-07
5.77205e-06
-1.01054e-06
-1.8897e-07
-3.14668e-07
2.78602e-07
2.01472e-07
1.0341e-06
-1.03056e-05
-2.89867e-06
-7.37587e-07
2.7331e-06
2.85207e-06
1.07654e-05
-9.1741e-07
-7.41999e-07
-7.49299e-07
1.42665e-06
1.37572e-06
2.89187e-05
-6.72727e-06
-6.39845e-06
-6.55537e-06
-6.1411e-06
-1.96378e-06
-2.03069e-06
-1.96094e-06
-1.55949e-06
1.19428e-06
1.14186e-06
1.1514e-06
1.29693e-06
9.7989e-07
9.68424e-07
-5.17339e-06
-1.02619e-06
1.21609e-06
1.00027e-06
5.40988e-06
-9.18556e-07
-7.35938e-07
4.03164e-06
-8.78281e-07
-8.77976e-07
-8.63827e-07
-1.10372e-06
8.92665e-08
1.52234e-07
2.34854e-07
8.47095e-08
1.52943e-07
1.58759e-07
2.69065e-07
2.04822e-07
-1.22153e-06
-8.09032e-07
7.16886e-07
1.24531e-06
6.83682e-08
-1.55218e-06
-5.51156e-07
1.43206e-06
6.27117e-06
-1.49838e-06
-1.47778e-06
-1.47782e-06
-4.25225e-07
-4.34934e-07
-3.68361e-07
3.25116e-07
3.3002e-07
4.04567e-07
3.98633e-07
-1.15048e-06
-1.12137e-06
4.78222e-06
-9.72718e-07
-1.12773e-06
-1.07773e-06
-1.39809e-06
2.01078e-07
2.13219e-07
3.63746e-07
2.64294e-07
2.24925e-07
2.10271e-07
3.36969e-07
2.5141e-07
-7.07342e-08
-8.96601e-08
-5.29291e-07
6.9022e-07
-5.34978e-10
1.32943e-05
6.15371e-06
3.99993e-07
-1.46869e-06
-3.4377e-06
-1.56283e-05
6.86621e-07
3.06029e-06
1.55978e-05
3.07452e-06
-1.24034e-05
-7.1304e-07
-8.00791e-07
-5.60116e-07
-2.01962e-06
-8.32023e-07
-1.35535e-06
-8.73403e-07
-2.1749e-06
-2.504e-06
-6.75897e-07
4.73693e-08
5.03276e-07
3.93868e-07
2.23538e-06
-1.75939e-06
-5.17592e-07
4.47559e-08
3.05033e-07
2.81351e-07
1.64584e-06
-1.1276e-05
-6.01193e-07
-5.16372e-07
5.95467e-07
1.14507e-06
1.20037e-05
-3.82674e-07
-2.2857e-07
-1.6309e-07
-2.24048e-07
-1.30763e-07
-2.21544e-07
-2.96149e-07
2.02451e-06
3.45555e-05
-8.8149e-07
-9.6991e-07
-1.04142e-06
-8.06274e-07
1.22639e-08
-6.9079e-08
4.30385e-07
7.80115e-07
-3.46132e-07
-7.89174e-07
-8.8027e-07
-8.80512e-07
-6.32804e-06
-2.67856e-07
7.94191e-07
6.38607e-06
-1.182e-06
-1.73833e-07
3.60475e-08
-4.04383e-08
1.80324e-07
1.1799e-06
-1.07556e-05
-1.15749e-06
-2.42756e-07
3.60284e-07
1.04874e-06
1.10634e-05
-1.76215e-07
-9.42713e-08
-4.59934e-08
-3.36323e-07
3.67641e-07
3.10357e-05
1.44143e-07
1.97201e-07
9.87512e-07
7.44386e-07
-3.82909e-07
-9.00056e-07
-8.28821e-07
2.24933e-07
-2.19034e-07
-9.11932e-08
-2.8064e-07
4.04046e-07
6.03453e-06
-5.95133e-06
-5.42926e-07
-4.35955e-06
-4.3226e-07
3.2255e-07
-5.91154e-08
-1.90297e-08
-3.90804e-08
-7.21773e-08
7.40306e-08
5.13089e-08
9.05958e-08
8.46474e-08
1.07958e-06
1.10013e-06
1.09468e-06
1.08369e-06
-1.80337e-06
-4.10658e-07
-1.16045e-07
5.30999e-07
1.73379e-06
6.52787e-08
2.69005e-08
-6.41718e-06
-1.28001e-07
6.58532e-06
1.16709e-07
4.89309e-08
5.18551e-08
8.31054e-08
-5.00662e-06
-2.61048e-07
2.21695e-07
5.1735e-06
-9.79994e-08
-1.0807e-07
-6.6064e-08
-6.14127e-08
3.53184e-08
7.6654e-08
6.81696e-08
2.58801e-08
-5.80387e-08
-1.07412e-06
5.35796e-08
-5.82615e-08
1.04978e-06
8.70689e-08
2.39618e-06
1.56015e-06
-1.37679e-06
-1.79808e-06
-8.06556e-06
2.91123e-06
1.92483e-06
2.68299e-06
-2.34958e-07
1.25844e-05
2.54445e-06
2.15018e-06
-2.50728e-06
-2.6181e-06
-1.21537e-05
-1.66398e-06
3.04977e-08
-3.1081e-07
7.63103e-07
1.14379e-06
3.73965e-08
-9.76291e-07
3.16843e-07
3.74285e-07
2.85162e-07
-1.24026e-05
-4.57424e-07
5.22408e-07
-2.5872e-06
-1.33964e-07
1.40109e-05
-4.5416e-07
-2.40675e-07
-7.53709e-08
5.73725e-07
6.42829e-07
6.0154e-07
-2.65026e-06
-2.03467e-06
9.74997e-06
9.14409e-06
1.01043e-05
9.0225e-06
-5.25226e-07
-8.22731e-07
-8.05536e-07
-6.81346e-07
3.12963e-06
3.17481e-06
3.47488e-06
3.60017e-06
-2.74131e-06
-3.31842e-06
-3.2653e-06
-1.03464e-06
4.11731e-07
7.06357e-06
-6.85446e-06
-6.10495e-07
-5.16939e-07
-4.72682e-07
-6.36344e-07
-1.22004e-06
-3.1045e-07
7.17138e-07
-5.80122e-08
9.35384e-07
-6.40244e-08
-2.64682e-06
1.17381e-07
3.84579e-07
-4.04538e-07
-2.22366e-07
2.77176e-06
-2.459e-06
-1.26969e-06
9.40556e-06
2.74493e-06
2.24947e-06
3.05842e-06
2.78403e-06
-2.35505e-06
-2.86871e-06
-2.71997e-06
8.1154e-06
8.46589e-06
7.78327e-06
-1.17419e-06
-1.59375e-06
-1.16554e-06
-2.14847e-06
-3.97626e-07
6.62672e-06
-6.57979e-06
4.01675e-08
-1.23143e-06
4.86362e-07
-3.26891e-08
-4.23902e-07
3.9325e-09
1.19772e-06
-2.31461e-06
5.42144e-07
1.04231e-07
-1.2108e-07
-5.46088e-07
2.33541e-06
1.54826e-06
-7.13545e-06
-1.69495e-06
7.38758e-06
-4.11118e-07
-2.74544e-07
-2.82066e-07
-4.07411e-07
8.07186e-07
-5.36281e-06
1.86532e-06
-4.87791e-07
-4.44899e-07
-2.66849e-07
-6.12805e-07
-2.85795e-07
-2.28317e-07
-3.53467e-07
-4.9764e-07
1.44033e-06
1.3358e-06
1.25883e-06
1.8329e-06
2.59655e-07
-6.69495e-07
4.13054e-07
-3.21403e-09
3.26681e-06
1.25089e-05
2.29644e-06
-2.69412e-06
-3.24124e-06
-1.21367e-05
7.74319e-06
-8.88099e-07
-1.39059e-06
-1.93842e-06
-1.13207e-06
-2.39399e-06
-1.66029e-05
8.73067e-07
2.82642e-06
-7.3095e-06
-2.88771e-06
1.63521e-05
3.28188e-07
3.5151e-07
3.69639e-07
1.94351e-06
1.87038e-06
1.88539e-06
-5.96233e-06
-1.11067e-06
1.07593e-05
-4.93919e-08
6.48861e-06
-1.76543e-07
-1.13687e-07
-8.5313e-08
1.08319e-06
-1.87761e-06
-9.76851e-08
-9.71843e-07
2.15653e-08
1.84239e-06
-3.08524e-06
1.17846e-06
-5.34549e-06
-3.47492e-06
1.22222e-05
-2.94882e-06
-3.08583e-06
-2.92266e-06
3.55161e-06
1.20315e-06
1.49529e-06
1.2123e-06
1.68557e-06
-4.85249e-06
-2.07725e-06
9.34443e-06
5.30529e-06
6.26401e-07
-7.02868e-06
4.14218e-06
-9.11977e-07
-7.4507e-07
-1.13185e-06
-8.68255e-07
-3.8768e-07
-2.66416e-07
-2.62959e-07
-2.13739e-07
1.58291e-06
1.72144e-06
2.17777e-06
1.56592e-06
-1.66266e-06
1.06609e-06
-9.70284e-07
1.46504e-06
1.01814e-07
5.69759e-07
-1.93949e-06
8.71048e-07
-6.23219e-07
-8.47617e-07
1.96952e-06
3.16388e-07
-2.0218e-06
1.10095e-06
-4.08988e-07
1.37016e-06
-3.56707e-07
4.06356e-05
3.79303e-06
1.55352e-06
-2.08963e-05
2.9323e-06
3.42454e-06
3.11481e-06
1.7378e-06
2.4956e-06
1.33425e-06
-2.46089e-06
-1.60669e-06
-1.42362e-06
-1.82293e-06
-9.34346e-06
-7.51042e-06
-8.24464e-06
-7.71254e-06
9.40038e-06
5.65551e-06
1.56096e-06
-1.70012e-06
-4.54883e-06
-1.03679e-05
1.52051e-06
1.46225e-07
-3.88102e-06
5.34087e-07
1.08887e-06
5.91333e-07
4.46484e-06
-3.75458e-06
3.58044e-06
-1.59817e-05
1.55901e-05
5.94233e-06
4.49031e-06
4.76783e-06
-6.722e-06
-4.27076e-06
-4.09037e-06
2.62468e-06
3.71098e-06
2.91473e-06
-3.30213e-06
-3.41205e-06
-3.32579e-06
-3.22694e-06
-1.39425e-05
-9.48913e-06
1.56382e-05
2.62592e-06
1.62927e-05
-1.73638e-05
2.34135e-06
2.06441e-06
1.83286e-06
-2.5935e-06
2.67506e-06
3.76383e-07
-2.47147e-06
-5.22275e-07
2.53581e-06
1.26937e-06
-2.4375e-06
1.59035e-06
-4.22211e-07
8.9151e-06
-8.43733e-06
-1.17351e-05
9.27899e-06
-2.23293e-06
-1.98981e-06
-2.43112e-06
-1.87035e-06
2.39462e-06
2.8282e-06
2.58603e-06
2.69369e-06
-9.15889e-06
3.36873e-06
7.58032e-06
-2.21348e-06
-1.62795e-06
-1.56514e-06
-1.89256e-06
-1.08861e-06
-8.88365e-07
-8.52335e-07
-9.20016e-07
2.71864e-06
2.2945e-06
2.04039e-06
2.20477e-06
1.81251e-06
-1.86007e-06
2.09346e-07
-2.13721e-07
5.19317e-08
1.60095e-06
-9.52729e-07
-3.86387e-07
-2.6183e-07
1.40749e-06
-1.73112e-06
1.07114e-06
-6.39597e-07
-1.07905e-07
7.45312e-06
7.27615e-06
2.53758e-06
-2.17817e-06
-8.62898e-06
-6.45971e-06
1.74856e-06
4.39748e-07
2.33192e-06
-4.96704e-07
-1.97835e-06
-2.04517e-06
4.20368e-07
4.61795e-06
1.65796e-07
-5.22147e-07
-4.08172e-06
-6.0025e-07
3.17068e-06
5.41726e-06
3.53102e-06
-6.33005e-06
-1.7027e-05
-4.22094e-07
4.2436e-06
3.76962e-06
3.64697e-06
1.09713e-06
-6.8094e-07
-6.54368e-07
2.29298e-07
8.88373e-09
-3.40943e-06
1.04509e-05
1.9606e-05
-3.50599e-05
-4.26198e-06
-3.98443e-06
-4.70106e-06
-6.88502e-06
-6.26953e-06
-5.46834e-06
-5.77382e-06
1.19241e-05
1.09692e-05
1.07182e-05
3.20112e-06
2.96381e-06
3.10466e-06
2.87547e-06
3.65514e-06
-1.71961e-05
2.51882e-05
2.36159e-06
2.21113e-06
2.61508e-06
2.45865e-06
-1.51425e-05
3.62333e-06
3.41402e-06
3.28005e-06
-4.00494e-06
-4.28801e-06
-4.3016e-06
-3.8741e-06
5.20296e-06
-3.90657e-06
4.52475e-06
-5.32667e-06
-3.79339e-06
3.29892e-06
1.09053e-06
-3.30047e-07
9.83194e-07
-8.43394e-07
-1.00572e-06
1.05439e-07
-1.50175e-06
1.6457e-06
9.16799e-07
-2.19704e-06
-9.54134e-07
2.09042e-06
4.40812e-07
-5.11154e-08
-4.89143e-07
9.94434e-08
5.80232e-07
1.65633e-07
1.57686e-06
-4.90404e-07
-1.79328e-06
-3.90362e-08
1.52753e-06
2.18881e-06
-9.05118e-07
-5.43808e-06
2.11562e-07
1.66559e-06
1.38751e-06
1.50326e-06
-4.95556e-07
-4.44118e-07
-5.90424e-07
-6.10961e-07
2.79369e-08
-1.95251e-08
2.551e-08
-2.20299e-08
-2.37343e-08
1.18421e-08
1.01182e-08
3.24589e-08
2.0135e-08
-1.83431e-08
-4.43688e-08
2.7498e-10
3.17713e-10
-4.19944e-10
-1.13159e-10
-2.13722e-10
1.53994e-10
1.24274e-06
-4.88121e-06
-1.01603e-06
2.94472e-06
1.70978e-06
5.39974e-06
-1.15485e-06
-1.30866e-05
8.60419e-06
2.65398e-06
-2.41644e-06
3.44715e-06
2.98539e-07
-1.5401e-05
1.49604e-05
-1.94831e-06
6.50823e-07
8.91952e-07
7.11998e-07
-8.88335e-07
-7.96844e-07
-1.13967e-06
-7.86687e-07
-1.20607e-06
-1.4653e-06
-3.10989e-07
-1.12072e-06
-1.60265e-05
1.86435e-05
1.10805e-06
2.23089e-07
-1.74634e-06
-1.27245e-05
-8.09224e-07
-8.96308e-07
1.48453e-05
-2.40273e-07
-1.87495e-07
-1.33628e-07
1.63001e-05
3.06749e-06
2.57218e-06
1.89071e-06
-1.34903e-05
1.38137e-05
-1.85016e-06
3.08319e-06
1.01668e-07
-1.85376e-06
2.41215e-06
-2.36036e-07
-3.29161e-07
-9.4864e-08
1.08795e-06
-3.39308e-06
3.28452e-06
-8.967e-07
2.15845e-07
-1.24229e-06
-1.26579e-05
-9.45248e-07
-4.94527e-07
-8.87131e-07
-4.37177e-07
1.46627e-05
2.86765e-06
-6.6965e-07
-1.0876e-06
-1.19539e-06
2.74669e-07
6.62059e-07
4.59853e-07
5.99215e-07
-1.08065e-06
1.66499e-06
-2.08118e-07
-2.74543e-07
2.1572e-07
2.17088e-06
-1.97789e-08
-2.36682e-06
1.40039e-06
-3.61082e-06
3.72344e-07
3.56962e-06
-3.10564e-07
-1.42097e-06
-1.00507e-06
-3.38941e-07
-3.86471e-06
4.31425e-07
-3.14167e-06
3.23856e-06
-2.59246e-07
1.13132e-06
-4.15631e-06
-2.68762e-06
4.06656e-06
-1.40121e-05
3.5804e-07
-2.05552e-07
-8.53202e-07
-1.25538e-06
1.02336e-07
-5.91191e-06
1.33225e-05
5.11761e-06
1.92e-06
-4.68538e-07
-2.38401e-07
-3.90963e-07
-6.43337e-06
-3.45268e-06
3.39437e-06
1.55818e-05
-3.5521e-06
7.35954e-06
-3.73464e-06
-5.40431e-06
-3.75856e-06
6.04276e-06
2.25388e-06
3.48686e-06
3.68753e-06
3.24557e-06
-2.78771e-06
-1.59654e-06
-1.98499e-06
-1.57691e-06
-3.98938e-06
-3.38331e-06
-3.78324e-06
-4.06527e-06
8.39927e-07
-1.53591e-06
-2.00865e-05
3.26437e-06
1.57231e-05
-6.08237e-07
6.19688e-06
-1.22843e-06
-1.07512e-06
-6.50176e-07
1.10206e-06
-1.52051e-05
4.41175e-06
1.59964e-05
-4.82563e-06
-6.36758e-06
1.84786e-06
9.26947e-07
2.11333e-06
4.12232e-06
2.64342e-06
2.76886e-06
1.98232e-06
-1.6652e-06
-3.11412e-06
-2.62758e-06
-2.92508e-06
-6.0339e-08
-3.68603e-06
1.06013e-06
3.81835e-06
-2.68331e-07
1.77938e-07
-1.59041e-06
-1.77229e-06
1.75477e-06
-3.48544e-06
1.44673e-05
-6.23528e-06
-3.11353e-06
5.45372e-06
-1.46077e-05
-3.99715e-07
1.41803e-06
1.30814e-06
-9.85418e-07
-5.8016e-06
1.26816e-06
-1.61942e-05
1.75158e-05
-3.00509e-06
8.80338e-07
1.13183e-06
2.83303e-07
1.12006e-06
1.43612e-06
4.02979e-07
9.62324e-07
1.49861e-06
1.95983e-07
-1.82124e-06
2.64766e-08
-2.44798e-06
3.32395e-07
2.04038e-06
-5.3877e-08
2.50083e-07
-1.21001e-07
2.61432e-06
-1.18605e-06
-8.51931e-07
-5.76335e-07
-2.52928e-07
2.37601e-06
1.5757e-07
1.3911e-07
-7.66269e-09
-5.84208e-08
2.84804e-07
4.43704e-07
-2.3885e-07
7.8566e-08
-5.09804e-07
9.76166e-06
-2.27387e-07
1.81753e-06
-8.47081e-07
1.94683e-06
-1.24516e-05
6.79659e-07
-2.98175e-07
3.33789e-06
6.68807e-08
5.3107e-07
-1.90917e-07
-3.70936e-08
9.61688e-09
-8.86084e-07
-1.13123e-06
-8.83327e-07
-1.19829e-06
1.27867e-06
3.16705e-06
-1.62493e-06
-2.52924e-06
-7.29848e-07
6.8158e-08
1.61691e-07
1.50028e-07
-1.79396e-07
1.7553e-06
-8.84053e-07
1.24447e-06
7.82534e-06
3.8865e-07
1.81924e-06
3.87331e-06
-1.24729e-06
1.57188e-07
-4.9911e-06
9.79859e-06
1.91092e-06
-1.17643e-06
-1.20234e-05
1.26297e-06
1.81236e-06
8.76148e-07
1.69446e-06
-5.2653e-07
-2.55605e-06
-1.30039e-06
-1.73575e-07
4.71156e-07
7.58091e-07
7.84144e-07
7.39912e-07
-2.6363e-08
-8.38386e-07
-8.36724e-07
-8.86793e-07
-8.21085e-07
1.95919e-07
2.13585e-07
1.91209e-07
9.89943e-08
-1.05175e-07
-1.1988e-06
7.89445e-06
1.01772e-06
4.04462e-06
1.86686e-06
-1.37762e-06
-5.00757e-06
8.62362e-07
1.9794e-06
6.15122e-07
-5.98992e-07
-1.45013e-06
1.26695e-06
3.43721e-06
1.78858e-06
1.95427e-06
-1.36348e-06
-3.91323e-07
-6.56381e-07
-3.10248e-07
-3.66095e-07
-1.05017e-06
-9.48236e-07
-9.68735e-07
-1.12541e-06
8.48452e-07
7.49638e-07
9.86957e-07
9.82495e-07
-1.61846e-06
-1.2286e-06
-1.08106e-06
-1.18572e-06
-1.16574e-06
-3.85048e-06
-3.98781e-06
-4.16618e-06
2.8599e-06
2.83208e-06
2.72303e-06
3.06288e-06
1.03993e-06
-4.32933e-07
2.06748e-06
-8.07824e-07
-2.45121e-06
5.84556e-07
3.03141e-07
1.72044e-06
-1.12305e-06
2.91065e-06
5.26349e-07
3.20939e-07
4.53264e-07
-3.42056e-07
-4.54817e-07
-3.3952e-07
-5.38131e-07
1.78466e-06
1.06786e-06
2.11305e-06
-9.43015e-07
-1.09548e-06
-2.92708e-06
-8.60596e-07
-2.42177e-07
1.10319e-06
1.3971e-06
6.03608e-07
1.49944e-06
4.69115e-07
7.81783e-07
1.24335e-06
-4.34281e-07
-1.51495e-07
-3.51911e-07
-5.74261e-07
-7.86205e-07
-8.3163e-07
-6.60789e-07
-7.85057e-07
5.33128e-07
3.64455e-07
3.58038e-07
5.11299e-07
-2.78247e-07
5.42468e-07
2.63474e-07
1.17268e-06
1.36908e-06
-1.98308e-06
9.09794e-07
3.16193e-07
-2.64525e-06
1.79486e-07
-4.40011e-08
4.02972e-07
-5.66094e-07
-1.87913e-06
1.92704e-06
-3.53373e-07
8.71563e-07
2.42328e-06
-2.68219e-06
-8.70689e-06
1.37652e-06
3.33305e-06
2.43172e-06
5.07952e-06
2.99278e-06
1.47807e-07
2.22321e-09
-9.94972e-08
-2.97164e-06
-7.16746e-08
-4.9402e-07
-2.6516e-06
2.79607e-06
2.48306e-07
-3.75252e-07
4.76496e-07
-6.24897e-07
1.62357e-07
-3.69512e-06
3.25304e-06
-6.78372e-08
9.7246e-07
9.47266e-06
1.8828e-08
1.21762e-06
-1.18828e-05
2.9912e-06
1.08765e-06
7.91052e-08
1.84515e-06
-2.12807e-06
7.69973e-08
-9.60834e-07
9.33953e-08
-2.85502e-06
-9.42878e-07
1.82111e-06
1.92729e-07
1.20653e-07
1.84713e-07
9.06236e-07
7.44723e-06
2.81242e-06
4.37993e-07
3.81728e-06
1.77858e-08
-4.74499e-06
2.29118e-06
2.40341e-07
1.67053e-07
-3.37465e-07
-6.9929e-08
3.80936e-08
5.34092e-06
1.26659e-07
-1.31507e-06
-1.13506e-06
-1.35042e-06
4.02175e-07
1.689e-07
4.81095e-07
-2.09028e-06
-2.91146e-06
-1.83561e-06
-1.96751e-06
2.06478e-06
1.30771e-06
2.51358e-06
1.24915e-06
4.59481e-07
2.71106e-06
2.94182e-06
-2.73556e-06
-2.34837e-07
-3.14196e-06
-1.25236e-06
6.75434e-07
4.15994e-07
-4.82639e-07
2.75551e-08
-7.61827e-08
-1.1132e-06
2.2717e-07
1.14855e-06
-1.13666e-06
-1.43247e-07
1.01738e-06
9.69492e-08
6.01832e-07
-6.25684e-07
-7.30981e-08
-1.20815e-05
1.33824e-06
3.14839e-06
1.47294e-06
1.88836e-06
-1.70392e-06
-1.97912e-06
1.19788e-06
1.00254e-06
6.92366e-06
-8.02021e-06
-1.00845e-06
-9.61996e-07
-7.76828e-07
-1.01504e-06
5.32151e-07
1.62957e-07
3.41381e-07
4.58982e-07
-2.61463e-07
-1.90779e-07
-3.1391e-07
1.12014e-06
1.13278e-06
9.53189e-07
6.45932e-07
1.08526e-06
-3.23663e-07
-1.40752e-06
-4.73488e-06
9.34987e-07
2.35963e-06
-5.573e-06
3.10046e-06
-7.40582e-07
-6.1848e-07
-7.43919e-07
-1.66549e-06
-1.49569e-06
-1.59364e-06
2.19324e-06
1.56543e-06
1.26374e-06
1.95488e-06
3.17851e-06
1.56154e-06
-1.2566e-06
-3.76438e-06
2.2352e-06
-1.40206e-06
1.21765e-06
9.90192e-08
2.9243e-06
2.78785e-06
-2.60807e-06
-3.15312e-06
5.08521e-07
3.19111e-07
1.07985e-06
-1.4329e-06
3.44966e-08
6.45378e-07
1.17633e-05
4.96244e-06
1.11482e-05
-2.89841e-06
-2.45267e-06
-2.5196e-06
-2.77655e-06
-7.56488e-07
-6.92921e-07
-8.78654e-07
-1.06721e-06
-3.58673e-06
-3.43311e-06
-3.47987e-06
-3.33169e-06
-2.28275e-07
-1.15489e-06
2.88334e-07
1.20733e-06
-1.125e-07
-6.7457e-06
-2.54783e-06
-1.37276e-06
-1.49335e-06
-1.35796e-06
-1.31298e-06
1.46315e-06
1.3024e-06
1.35233e-06
1.33961e-06
7.1821e-07
6.75311e-07
7.21733e-07
7.60949e-07
-5.03784e-07
9.96588e-07
1.18653e-06
-1.12538e-06
-1.16578e-06
6.11826e-07
7.69434e-07
-1.33749e-06
1.39003e-06
-1.15103e-06
-8.27743e-07
1.1568e-06
9.91684e-07
8.66399e-07
1.10301e-06
-1.07373e-06
-7.01664e-07
-1.1857e-06
3.58857e-07
4.68637e-07
-2.77947e-07
-2.33914e-07
-4.03548e-07
8.79129e-08
-3.13436e-07
-2.91284e-07
4.00654e-07
2.1113e-07
2.7827e-07
-2.27428e-07
3.48976e-07
-3.87802e-07
3.66166e-07
-3.78183e-07
-4.05184e-07
-3.31451e-07
-3.24837e-07
-2.45571e-07
-1.54368e-07
1.47825e-07
2.46532e-07
2.78159e-07
2.84643e-07
-3.25942e-08
1.06739e-06
2.45691e-07
-6.0565e-07
8.19035e-08
2.23998e-07
-2.16506e-08
1.31535e-06
9.80623e-07
-1.20704e-06
-1.08893e-06
-2.8382e-06
4.61565e-07
-6.89327e-07
6.05172e-07
-3.46833e-07
2.80762e-06
-1.2106e-06
-1.1343e-06
8.92061e-07
1.43599e-06
-6.69021e-08
-8.87817e-07
5.0846e-08
1.5262e-06
-1.56793e-06
8.50672e-07
2.80227e-08
5.09116e-07
1.89761e-08
1.13315e-06
-8.95729e-07
-7.67085e-07
1.57321e-09
7.13969e-07
2.51843e-08
2.81765e-07
-5.65287e-07
1.38952e-06
4.82554e-07
5.76913e-09
1.78019e-07
5.04849e-08
-2.11994e-07
-5.04832e-07
-1.94603e-07
-2.13622e-07
1.98024e-07
-7.63535e-07
-6.6113e-07
-5.63365e-07
9.84854e-07
3.27127e-06
3.64883e-06
2.65229e-06
6.42614e-07
-2.64097e-07
-2.94607e-06
2.62632e-06
8.953e-08
1.33356e-07
-1.97666e-06
-2.3023e-07
3.08987e-06
-4.17812e-07
-4.29734e-07
-4.12494e-07
3.92722e-08
7.3045e-08
1.47201e-07
1.63787e-07
5.50082e-08
1.5841e-07
2.12489e-06
5.97661e-07
2.87038e-06
-2.64041e-06
-5.135e-07
-2.43902e-06
7.19723e-07
4.0908e-06
1.25979e-07
3.04006e-08
-2.7995e-08
-1.65161e-07
-3.41534e-07
-3.5671e-07
-3.82677e-07
5.08582e-07
2.73909e-08
-2.7505e-08
5.76806e-07
3.90248e-07
-3.81521e-07
-2.95984e-09
-1.60641e-07
3.85613e-07
1.67673e-06
2.04855e-06
-1.29693e-05
-8.96237e-07
-3.9894e-07
-5.41592e-07
-4.76315e-07
2.9889e-06
2.54757e-06
3.3786e-06
1.05445e-09
-1.33328e-05
3.10771e-06
-3.80343e-06
1.5739e-05
2.818e-06
-9.36138e-07
-8.05662e-07
-1.04563e-06
-1.741e-06
1.85042e-07
-7.02226e-09
2.59845e-06
3.03902e-06
-1.39623e-05
-5.16688e-07
-4.43031e-07
-5.6932e-07
-4.1865e-07
-2.21239e-06
-1.25594e-05
2.55764e-06
1.34874e-05
1.09517e-06
-2.36835e-06
-1.11069e-06
6.47754e-07
-1.26654e-07
8.20089e-07
2.91562e-08
8.72629e-07
6.09181e-10
-9.49716e-07
-3.03908e-09
7.95165e-08
-8.24158e-06
1.48007e-06
7.50552e-07
3.0454e-07
4.20972e-07
2.76352e-07
-5.04962e-07
-4.41839e-07
-4.89472e-07
-7.50098e-07
2.17336e-06
1.98913e-06
2.00876e-06
2.57247e-06
8.05967e-07
-1.90057e-06
-9.50129e-07
3.82065e-07
4.33926e-07
-7.777e-07
2.13801e-06
-2.0338e-06
7.96764e-07
-5.57197e-07
1.27204e-05
2.05e-06
1.8207e-06
-2.77732e-06
-1.0547e-05
-4.06268e-06
1.77314e-06
-9.68121e-06
9.25552e-06
-1.37445e-06
9.50216e-07
7.91994e-07
7.01011e-07
1.64646e-06
4.74049e-06
5.92097e-06
4.18898e-06
-3.34879e-06
-1.46791e-05
4.21736e-06
3.46213e-06
3.2412e-06
-1.79306e-05
-2.17348e-06
-3.2605e-06
-3.03209e-06
-2.44194e-06
2.04452e-06
4.02524e-06
3.73373e-06
3.69447e-06
2.47721e-06
1.97895e-06
2.1774e-06
1.04248e-05
1.14415e-05
1.14256e-05
1.19881e-05
-5.88237e-07
6.59364e-07
4.57073e-07
-5.19133e-07
-9.06828e-09
-4.94723e-06
-3.97246e-05
1.49199e-06
1.03977e-05
1.12766e-05
1.12418e-05
9.71622e-06
-2.01351e-06
-1.94248e-06
-1.94155e-06
-1.99801e-06
-5.99835e-06
-4.59599e-06
-4.7384e-06
1.67958e-06
2.08979e-06
2.0759e-06
-2.97977e-07
-1.84597e-06
-1.20469e-05
8.27536e-06
5.44914e-06
1.51617e-06
-1.88059e-07
-3.22733e-07
-5.39024e-07
-2.47812e-06
1.6122e-06
1.03462e-06
-4.66688e-07
1.1899e-06
1.10283e-05
-1.50584e-06
-6.2592e-06
-6.9033e-06
4.31739e-06
-7.34036e-07
1.47398e-06
4.45287e-06
2.22063e-06
1.61397e-06
1.68288e-06
1.77947e-06
-7.43034e-06
6.51614e-08
1.84235e-08
3.50794e-08
1.18682e-07
-1.18211e-06
-9.65994e-07
-9.77173e-07
-8.05143e-07
-4.12943e-08
-1.53416e-06
-1.19526e-08
1.44574e-06
1.41664e-07
1.21365e-06
-1.46062e-06
-7.61017e-08
3.23069e-07
1.59181e-06
-3.20624e-07
1.87749e-06
-1.71037e-06
1.8841e-07
-1.62672e-06
7.89037e-06
-2.17591e-06
-5.07272e-06
3.74341e-06
7.51071e-07
8.23962e-07
1.0803e-06
1.48001e-06
-2.08106e-06
-1.85292e-06
-2.49874e-06
-2.08776e-06
5.01718e-07
7.9475e-07
-4.48884e-07
-1.80519e-06
2.11043e-06
-6.13494e-06
-2.40232e-06
4.32441e-06
1.46635e-06
1.93995e-06
2.01149e-06
1.52777e-06
-1.9438e-06
-1.14404e-06
-1.7553e-06
4.89305e-06
1.45303e-06
-1.20942e-05
1.65264e-06
1.27749e-06
7.75401e-07
2.61777e-06
2.59545e-06
-1.12136e-05
5.83555e-06
3.96994e-06
-4.3001e-06
1.21105e-05
-6.40228e-06
2.04253e-06
2.81147e-06
-6.51094e-06
5.52849e-06
5.93292e-07
-5.47916e-06
-4.38858e-06
-2.99884e-06
3.20921e-06
4.41819e-06
5.23918e-06
5.10915e-06
-4.90843e-06
-6.15568e-06
-8.66809e-06
3.08425e-06
1.02657e-05
-9.10685e-06
-1.88023e-06
-1.9058e-06
-4.57036e-07
3.3481e-06
1.72956e-05
-2.25942e-05
-4.37283e-06
-4.41042e-06
-4.74581e-06
-4.5669e-06
7.08935e-06
7.6867e-06
6.96132e-06
7.19201e-06
3.31988e-06
4.64064e-06
4.23478e-06
-5.04648e-06
-5.33098e-06
-5.15157e-06
-5.54923e-06
4.50383e-06
-6.09162e-06
-5.16328e-06
-5.07835e-06
5.90438e-06
5.92505e-06
-1.91829e-06
4.75037e-07
1.71171e-06
-5.0718e-07
2.05123e-06
-2.07161e-06
1.96885e-06
9.36978e-07
-1.65091e-06
2.22418e-06
-1.3569e-06
4.91547e-07
8.68264e-07
-2.91103e-09
9.2439e-07
1.97481e-06
-2.11142e-06
-1.58677e-06
-7.02755e-07
5.92009e-06
-3.15229e-06
2.85571e-06
-4.7787e-06
2.81033e-06
5.33038e-06
-1.67461e-05
-4.55106e-06
-4.56933e-06
-5.07428e-06
-3.69793e-06
-3.71861e-06
-3.47103e-06
-4.23242e-06
2.74782e-06
3.44417e-06
2.71915e-06
4.12917e-06
5.66271e-06
4.9403e-06
5.09393e-06
-2.44182e-06
4.40775e-06
-4.75501e-06
1.00504e-06
2.97666e-07
7.95483e-07
6.90897e-07
-5.36928e-06
-9.86212e-07
-3.29861e-06
3.44633e-06
4.24783e-06
5.28645e-06
-1.21193e-06
-8.52361e-07
-1.26222e-06
-1.89207e-06
3.71574e-06
-2.15933e-07
-7.88695e-07
-2.88805e-07
-5.30238e-07
-2.12859e-06
4.36728e-06
-4.49231e-06
-9.84742e-07
-1.67665e-06
-9.83279e-07
3.25046e-07
4.71855e-07
3.46845e-07
4.75796e-07
-1.38717e-06
-1.79591e-06
-1.81906e-06
1.71331e-06
2.52529e-06
7.63533e-07
-5.18155e-08
-6.01865e-08
-1.80228e-08
3.09649e-08
4.15229e-08
5.75368e-08
-1.7525e-06
1.93929e-06
-1.08628e-06
1.15803e-06
-6.03977e-08
-1.39752e-08
-4.46532e-08
-2.35231e-07
6.58164e-08
5.32067e-08
7.28415e-08
8.1615e-08
7.15232e-08
5.99042e-08
9.61554e-08
-7.33775e-08
-5.74953e-08
-6.77479e-08
5.32869e-07
-1.01555e-07
9.49838e-09
-2.23162e-06
4.2361e-07
-4.833e-07
1.70206e-06
9.83871e-07
-3.94614e-07
2.27513e-07
6.81991e-07
5.13408e-08
-2.61224e-06
-5.13575e-07
-1.48581e-06
1.19851e-07
1.78701e-06
5.41716e-07
-4.49189e-07
-3.27516e-08
-6.27682e-08
-3.17506e-08
9.73012e-08
2.09719e-08
8.99721e-09
6.34941e-08
1.97926e-06
-5.25053e-07
-5.03743e-07
-6.05411e-08
-3.3734e-08
6.7826e-08
4.04866e-08
-4.67892e-08
-2.16158e-07
-5.09914e-06
-1.00235e-06
1.55051e-06
1.46391e-06
1.5779e-06
6.70191e-07
7.13609e-07
5.43015e-07
5.01513e-07
-3.55131e-08
-3.29872e-08
5.92655e-08
1.92435e-08
-7.27768e-08
2.48641e-08
-3.50404e-08
-7.576e-08
8.17714e-10
9.64742e-11
-4.28498e-10
-3.33798e-10
1.22956e-10
1.66043e-05
-1.92436e-06
1.31642e-06
9.77945e-07
-1.48586e-05
-2.12854e-07
-9.55783e-07
-1.00076e-07
-8.47018e-07
-8.17941e-07
-1.87491e-05
-1.26142e-06
-3.67376e-07
-9.97973e-07
-1.81139e-06
-6.6409e-07
2.46693e-05
-5.21618e-07
-3.60738e-06
2.2485e-06
5.22507e-07
1.35799e-06
6.8974e-07
-1.32704e-06
-1.1201e-06
-1.05061e-06
1.85944e-05
2.16395e-07
-3.96325e-06
9.96334e-07
3.78592e-06
-4.94975e-07
-5.40426e-07
-5.9801e-07
1.34113e-06
-1.7283e-05
-3.99612e-07
-6.65505e-07
-4.56429e-07
-6.9859e-07
-6.3795e-07
-6.51209e-07
-6.24343e-07
-3.69765e-07
9.79849e-07
-2.61412e-06
2.66172e-06
-6.57688e-07
2.92831e-07
1.06241e-06
-3.34711e-06
2.65995e-06
-2.7479e-07
-3.93292e-07
-1.4043e-05
3.03604e-07
-1.65845e-06
-7.58084e-07
-8.23157e-07
1.62297e-05
1.20835e-06
-8.39206e-07
-1.08573e-06
-1.49116e-05
4.14421e-07
4.56398e-07
2.0833e-07
1.20099e-07
-2.44077e-07
-5.07765e-07
-3.49738e-07
1.215e-06
-1.15828e-06
-1.38453e-05
3.3216e-07
1.72454e-07
2.71202e-07
1.78155e-07
-1.04029e-06
5.38061e-07
1.26222e-06
2.11155e-07
-9.7115e-07
4.23819e-07
1.3535e-07
-2.18856e-06
2.17356e-06
-2.8842e-07
-2.55747e-07
-1.11349e-06
-1.00843e-06
4.1164e-06
-1.3568e-05
-1.41527e-06
-7.14609e-07
-1.09247e-06
-1.62081e-06
-2.40677e-07
7.26716e-07
-2.24526e-06
-1.42242e-05
-1.00418e-06
-2.18351e-06
-9.63284e-07
-7.98326e-07
8.8683e-08
5.70393e-07
4.75701e-07
-1.57143e-05
1.52828e-05
-6.19065e-06
2.54834e-06
-6.18569e-07
-4.09061e-07
-4.38064e-07
1.68046e-06
-1.51225e-05
1.59323e-05
-3.27764e-06
-5.64602e-06
9.11231e-07
-3.03815e-06
3.44362e-06
-1.04403e-06
-1.80857e-06
-1.52586e-06
-8.44898e-07