/*--------------------------------*- C++ -*----------------------------------*\
  =========                 |
  \\      /  F ield         | OpenFOAM: The Open Source CFD Toolbox
   \\    /   O peration     | Website:  https://openfoam.org
    \\  /    A nd           | Version:  7
     \\/     M anipulation  |
\*---------------------------------------------------------------------------*/
FoamFile
{
    version     2.0;
    format      ascii;
    class       volScalarField;
    location    "0";
    object      thickness;
}
// * * * * * * * * * * * * * * * * * * * * * * * * * * * * * * * * * * * * * //

dimensions      [0 0 0 0 0 0 0];

internalField   uniform 0;

boundaryField
{
    defaultFaces
    {
        type            empty;
    }
    AortaInlet
    {
        type            fixedValue;
        value           nonuniform List<scalar> 
82
(
0
0
0
0
0
0
0
0
0
0
0
0
0
0
0
0
0
0
0
0
0
0
0
0
0.000389358
0.000263881
0.000384578
0.000349732
9.23615e-05
9.73101e-05
0.000166085
4.58539e-05
9.22895e-05
4.20941e-05
0.000104711
9.42165e-05
0.000225745
4.5217e-05
9.12479e-05
4.18257e-05
0.000153602
0.000231755
9.72191e-05
0.000236592
0.000132246
0.000222444
0.000105856
0.000203558
0.000352818
0.000234816
0.00014814
0.00038666
0.000336262
0.000513221
0.000487969
0.000328772
0.000327835
0.00048605
9.32002e-05
0.000200531
9.29153e-05
8.96254e-05
4.23964e-05
0.000254825
9.70151e-05
0.000209183
9.461e-05
4.34785e-05
0.000143565
8.85059e-05
0.000115651
0.000283967
0.000254936
9.86173e-05
0.000211075
9.24427e-05
9.78913e-05
9.36006e-05
0.000249652
0.000245678
6.3494e-05
4.28932e-05
)
;
    }
    AortaOutlet
    {
        type            fixedValue;
        value           nonuniform List<scalar> 
62
(
0
0
0
0
0
0
0
0
0
0
0
0
0.000172554
0.000368158
0.000109777
0.00022971
0.000273126
0.000261646
0.000216721
0.000109507
8.94329e-05
0.000113864
0.000422947
0.000448015
0.000294843
0.000413923
6.28322e-05
8.67443e-05
9.10882e-05
0.000188111
0.000108871
9.47031e-05
0.000261668
0.000214953
4.42373e-05
4.81784e-05
0.000150616
0.000364546
0.000237498
0.000267431
0.0001533
8.76558e-05
8.86e-05
0.000284081
0.000107482
4.78517e-05
9.74509e-05
9.21182e-05
8.49116e-05
4.71067e-05
0.000143494
9.52851e-05
8.49538e-05
4.24859e-05
0.000274249
9.46472e-05
4.18347e-05
4.4797e-05
0.000236997
9.12702e-05
4.64708e-05
5.71128e-05
)
;
    }
    AortaWall
    {
        type            fixedValue;
        value           nonuniform List<scalar> 
6739
(
0
0
0
0
0
0
0
0
0
0
0
0
0
0
0
0
0
0
0
0
0
0
0
0
0
0
0
0
0
0
0
0
0
0
0
0
0
0
0
0
0
0
0
0
0
0
0
0
0
0
0
0
0
0
0
0
0
0
0
0
0
0
0
0
0
0
0
0
0
0
0
0
0
0
0
0
0
0
0
0
0
0
0
0
0
0
0
0
0
0
0
0
0
0
0
0
0
0
0
0
0
0
0
0
0
0
0
0
0
0
0
0
0
0
0
0
0
0
0
0
0
0
0
0
0
0
0
0
0
0
0
0
0
0
0
0
0
0
0
0
0
0
0
0
0
0
0
0
0
0
0
0
0
0
0
0
0
0
0
0
0
0
0
0
0
0
0
0
0
0
0
0
0
0
0
0
0
0
0
0
0
0
0
0
0
0
0
0
0
0
0
0
0
0
0
0
0
0
0
0
0
0
0
0
0
0
0
0
0
0
0
0
0
0
0
0
0
0
0
0
0
0
0
0
0
0
0
0
0
0
0
0
0
0
0
0
0
0
0
0
0
0
0
0
0
0
0
0
0
0
0
0
0
0
0
0
0
0
0
0
0
0
0
0
0
0
0
0
0
0
0
0
0
0
0
0
0
0
0
0
0
0
0
0
0
0
0
0
0
0
0
0
0
0
0
0
0
0
0
0
0
0
0
0
0
0
0
0
0
0
0
0
0
0
0
0
0
0
0
0
0
0
0
0
0
0
0
0
0
0
0
0
0
0
0
0
0
0
0
0
0
0
0
0
0
0
0
0
0
0
0
0
0
0
0
0
0
0
0
0
0
0
0
0
0
0
0
0
0
0
0
0
0
0
0
0
0
0
0
0
0
0
0
0
0
0
0
0
0
0
0
0
0
0
0
0
0
0
0
0
0
0
0
0
0
0
0
0
0
0
0
0
0
0
0
0
0
0
0
0
0
0
0
0
0
0
0
0
0
0
0
0
0
0
0
0
0
0
0
0
0
0
0
0
0
0
0
0
0
0
0
0
0
0
0
0
0
0
0
0
0
0
0
0
0
0
0
0
0
0
0
0
0
0
0
0
0
0
0
0
0
0
0
0
0
0
0
0
0
0
0
0
0
0
0
0
0
0
0
0
0
0
0
0
0
0
0
0
0
0
0
0
0
0
0
0
0
0
0
0
0
0
0
0
0
0
0
0
0
0
0
0
0
0
0
0
0
0
0
0
0
0
0
0
0
0
0
0
0
0
0
0
0
0
0
0
0
0
0
0
0
0
0
0
0
0
0
0
0
0
0
0
0
0
0
0
0
0
0
0
0
0
0
0
0
0
0
0
0
0
0
0
0
0
0
0
0
0
0
0
0
0
0
0
0
0
0
0
0
0
0
0
0
0
0
0
0
0
0
0
0
0
0
0
0
0
0
0
0
0
0
0
0
0
0
0
0
0
0
0
0
0
0
0
0
0
0
0
0
0
0
0
0
0
0
0
0
0
0
0
0
0
0
0
0
0
0
0
0
0
0
0
0
0
0
0
0
0
0
0
0
0
0
0
0
0
0
0
0
0
0
0
0
0
0
0
0
0
0
0
0
0
0
0
0
0
0
0
0
0
0
0
0
0
0
0
0
0
0
0
0
0
0
0
0
0
0
0
0
0
0
0
0
0
0
0
0
0
0
0
0
0
0
0
0
0
0
0
0
0
0
0
0
0
0
0
0
0
0
0
0
0
0
0
0
0
0
0
0
0
0
0
0
0
0
0
0
0
0
0
0
0
0
0
0
0
0
0
0
0
0
0
0
0
0
0
0
0
0
0
0
0
0
0
0
0
0
0
0
0
0
0
0
0
0
0
0
0
0
0
0
0
0
0
0
0
0
0
0
0
0
0
0
0
0
0
0
0
0
0
0
0
0
0
0
0
0
0
0
0
0
0
0
0
0
0
0
0
0
0
0
0
0
0
0
0
0
0
0
0
0
0
0
0
0
0
0
0
0
0
0
0
0
0
0
0
0
0
0
0
0
0
0
0
0
0
0
0
0
0
0
0
0
0
0
0
0
0
0
0
0
0
0
0
0
0
0
0
0
0
0
0
0
0
0
0
0
0
0
0
0
0
0
0
0
0
0
0
0
0
0
0
0
0
0
0
0
0
0
0
0
0
0
0
0
0
0
0
0
0
0
0
0
0
0
0
0
0
0
0
0
0
0
0
0
0
0
0
0
0
0
0
0
0
0
0
0
0
0
0
0
0
0
0
0
0
0
0
0
0
0
0
0
0
0
0
0
0
0
0
0
0
0
0
0
0
0
0
0
0
0
0
0
0
0
0
0
0
0
0
0
0
0
0
0
0
0
0
0
0
0
0
0
0
0
0
0
0
0
0
0
0
0
0
0
0
0
0
0
0
0
0
0
0
0
0
0
0
0
0
0
0
0
0
0
0
0
0
0
0
0
0
0
0
0
0
0
0
0
0
0
0
0
0
0
0
0
0
0
0
0
0
0
0
0
0
0
0
0
0
0
0
0
0
0
0
0
0
0
0
0
0
0
0
0
0
0
0
0
0
0
0
0
0
0
0
0
0
0
0
0
0
0
0
0
0
0
0
0
0
0
0
0
0
0
0
0
0
0
0
0
0
0
0
0
0
0
0
0
0
0
0
0
0
0
0
0
0
0
0
0
0
0
0
0
0
0
0
0
0
0
0
0
0
0
0
0
0
0
0
0
0
0
0
0
0
0
0
0
0
0
0
0
0
0
0
0
0
0
0
0
0
0
0
0
0
0
0
0
0
0
0
0
0
0
0
0
0
0
0
0
0
0
0
0
0
0
0
0
0
0
0
0
0
0
0
0
0
0
0
0
0
0
0
0
0
0
0
0
0
0
0
0
0
0
0
0
0
0
0
0
0
0
0
0
0
0
0
0
0
0
0
0
0
0
0
0
0
0
0
0
0
0
0
0
0
0
0
0
0
0.000375263
0.000543442
0.000999773
0.000877196
0.00087712
0.000874429
0.00196096
0.000642406
0.000742839
7.82712e-05
0.0019998
0.000967445
0.000769166
0.000931144
0.000184318
0.000810575
0.000874279
0.000655873
0.000253187
0.000658077
0.000928158
0.000974245
0.000870891
0.000885748
0.000779142
0.000837568
0.000521122
4.49242e-05
8.97229e-05
0.000989024
0.000740463
0.000461172
0.000209774
0.000550423
0.000824585
0.000960059
0.000980154
0.000225881
0.00096567
0.000966946
0.000863123
0.000614572
0.000188092
0.000696888
0.000190533
0.000464805
0.000188385
0.000471164
0.001
0.000154565
0.000438068
0.000730608
0.00082437
0.000440249
0.000998837
0.000999975
0.00199137
0.00150422
0.000483609
0.00199991
0.00199931
0.00199748
0.000685827
0.000994928
0.00163081
0.00199816
0.00137798
0.000707419
0.002
0.00199983
0.00144766
0.00199997
0.00175523
0.0015269
0.00198571
0.001734
0.00184453
0.000999994
0.000650443
0.000997179
0.000722957
0.000324338
0.000943953
0.000869801
0.00096729
0.000264152
0.000798362
0.00058476
0.000993224
0.000889055
0.00099998
0.000977142
0.000479046
0.000757077
0.000171652
0.000582109
0.000999976
0.000356758
0.00137976
0.00199872
0.00199551
8.03765e-05
0.000385654
0.000882592
0.00101119
0.00193046
0.00195986
0.00199978
0.00026953
0.000958916
0.00199972
0.00137588
0.000968504
0.000426039
0.00187123
0.00199874
0.000141553
0.00111786
0.00199586
0.000812413
0.000568362
0.000532026
0.00042702
0.000223389
0.00044622
0.000207652
0.00099843
0.000244525
0.000592018
0.000991398
0.00099672
0.000997346
0.000271581
0.000922635
0.000999986
0.000675289
0.00127882
0.000394917
0.00195347
0.000249143
0.00197581
0.000378032
0.00105561
0.00199457
0.00199947
0.00178464
0.00187104
0.00199998
0.00199926
0.00112693
0.00158909
0.00199776
9.52451e-05
0.00199967
0.00120117
0.00180392
0.00150716
0.00105443
0.0018309
0.00136417
0.000171409
0.00188717
0.00199967
0.000140355
0.000998101
0.00102127
0.00142682
0.000841482
0.000998977
0.000815573
0.0019907
0.000536016
0.001981
0.000999529
0.000448367
0.000999518
0.000795775
0.000385664
0.000708048
0.000526033
0.00014093
0.000131239
0.000320201
6.99489e-05
0.000746295
0.000785223
0.000341071
0.000446907
0.000465215
0.000392758
0.000227639
0.00197328
0.00105767
0.000568423
0.0009722
0.000975872
0.000522495
0.00199761
0.000198475
0.00199422
0.0019993
0.00199784
0.000779558
0.000983186
0.000960596
0.000994993
0.000975932
0.00199562
0.00199667
0.00198142
0.000834928
0.000459959
0.000455092
0.00192311
0.00195759
0.00191861
0.00199334
0.00197468
0.00099993
0.000722276
0.000999976
0.000999669
0.000979844
0.000470609
0.000221737
0.000961883
0.000179747
0.000995574
0.000969708
0.000973288
0.000230153
0.000957195
0.000256809
0.000910482
0.000463805
0.000988644
0.000992771
8.93925e-05
0.000997709
0.00099727
0.000202311
0.000648406
0.000979286
0.00121575
0.001
0.000999881
0.000920873
0.00121242
0.000234277
0.000545519
0.000213653
0.000994239
0.00117286
0.00185233
0.00196605
0.00199449
0.00198819
0.00190959
0.00176919
0.000234804
0.00133963
0.00123885
0.00199398
0.000167638
7.01391e-05
0.000837707
0.000520374
0.000678908
0.00102779
0.00199999
0.002
0.000986595
0.00109579
0.00131059
0.00123139
0.00170667
0.00171716
0.000395159
0.000973378
0.00192555
0.00199253
0.00197804
0.00199991
0.00199859
0.002
0.00199999
0.002
0.00160068
0.00199772
0.00199984
0.00199999
0.002
0.000631616
0.000893112
0.002
0.002
0.00186881
0.0019079
0.00183936
0.00116413
0.00160283
0.00160991
0.00171066
0.00181336
0.002
0.00199973
0.002
0.002
0.002
0.000715864
9.97823e-05
0.002
0.00175276
0.00199924
0.00194839
0.00140391
0.00197395
0.00195145
0.00198719
0.00190684
0.002
0.002
0.00199946
0.00198558
0.00175978
0.00178304
0.00189782
0.00197353
0.00199927
0.00013942
0.000308505
0.000995597
0.000444784
0.000515421
0.00155506
0.00145863
0.00199412
0.00185966
0.00194293
0.000996713
0.000449812
0.000121722
0.000381296
0.000912169
0.000998243
0.000294102
0.000245406
0.000465173
0.000826165
0.000775024
0.000239798
0.000933186
0.000832801
5.23853e-05
0.00073065
0.000997224
0.000164231
0.000536153
0.000506136
4.65606e-05
0.000644386
0.000134459
0.000367051
0.000990287
0.000941642
0.000174581
0.000243827
0.000877505
0.000579536
0.000940825
0.000232889
0.000384644
0.000228697
0.000970407
0.000312954
0.000980005
0.000974172
0.000771825
0.000712621
0.000910672
0.000582695
0.000191759
0.000140318
0.000995947
0.000963865
0.000993816
0.000726587
0.000979361
0.000123209
0.000134901
0.000666389
7.18028e-05
0.000908591
0.000843748
0.000943143
0.000999922
0.000344405
0.000429253
0.000673655
0.000984145
0.000983465
0.000884609
0.000496024
0.000897877
0.000212194
0.000177086
0.000439238
0.000995169
0.000241045
0.000190388
0.000493627
0.00183813
0.00199819
0.00180018
0.00170107
0.0014662
0.00103824
0.000580779
0.000257414
0.000736042
0.000679471
0.000994767
0.000860103
0.000391146
0.000984741
0.000994164
0.00198256
0.00192635
0.00194101
0.00199069
0.00199963
0.00199836
0.000435189
0.00046674
0.000967743
0.000939863
0.000525198
0.000949957
0.000626955
0.0018797
0.00197718
0.00173196
0.00122397
0.00179679
0.00193698
0.00194718
0.000426486
0.000841854
0.000971144
0.000964864
0.000993093
0.000991696
7.86223e-05
0.000940478
0.000890531
0.000802541
0.000927981
0.000925785
0.00194173
0.00190127
0.00167403
0.00192681
0.00173096
0.00199443
0.00199717
0.000801477
0.00101329
0.00109625
0.000999947
0.00130295
0.00135401
0.00175312
0.00152383
0.000987623
0.00102126
0.00112521
0.000948461
0.000478504
0.000830746
0.000176819
0.000501092
0.000926143
0.000959116
0.000947953
0.000960617
4.54774e-05
0.000484495
0.000136248
0.000728116
0.000964878
0.000762051
0.000971181
0.000999946
0.000999988
0.000401252
0.000611352
4.88774e-05
0.000168999
0.000315678
0.000314282
0.000196485
0.000344553
0.000451518
0.000183762
0.000155897
0.000180577
0.000988692
0.000957687
0.000771514
0.000103037
0.000932081
0.000925672
0.000805923
0.000213563
0.000360976
0.000977459
0.00099378
0.000428854
0.000748642
0.000989771
0.000997974
0.00055123
0.000986398
0.00093538
0.000999459
0.000991782
0.000346079
0.000923675
0.000434446
0.000999898
0.000999337
0.000999973
0.000999873
0.000346099
0.000999155
0.000438092
0.000900732
0.000928124
0.000971274
0.000924078
0.000994089
0.00170261
0.000782288
0.000592522
0.00199183
0.000148058
0.00196047
0.00196987
0.0019635
0.00191377
0.00198957
0.00199397
0.0019984
0.00199823
0.000412374
0.000231277
0.000979861
0.000412296
0.000344515
0.000997876
0.000765825
0.000838475
0.000894185
0.000999309
0.000941471
0.000279554
0.000887062
0.00069032
0.000882981
0.000994115
0.00177727
0.00128405
0.00182088
0.00199997
0.00199999
0.00199962
6.94416e-05
0.00095162
0.00098814
0.0010894
0.001045
0.00171546
0.0018826
0.00192148
0.00196616
0.00170579
0.0016722
0.00188997
0.000940874
0.000886522
0.000972923
0.000971846
0.000910542
0.000340424
0.000691636
0.000999846
0.000741149
0.000996549
0.000999916
0.00116789
0.000573387
0.000977316
0.00099735
0.000980905
0.000787277
0.000998486
0.00199992
0.002
0.002
0.00199999
0.00199571
0.00198552
0.00199918
0.00199998
0.00199984
0.00194695
0.00193499
0.00198988
0.00199795
0.00174762
0.00184314
0.00194855
0.00198935
0.00199772
0.00048448
0.000907019
0.000700177
0.000354415
0.000988188
0.0008891
0.000332965
0.001
0.001
0.000908358
0.000962258
0.00105054
0.00170509
0.00198679
0.00199619
0.00199945
0.00199995
0.0019974
0.00199919
0.00199908
0.00199952
0.00199994
0.00199998
7.67249e-05
0.000396664
0.000526354
0.000653404
0.00016948
8.60848e-05
0.000646895
0.000238553
0.000482791
0.000999919
0.000999948
0.00161787
0.000993627
0.000998933
0.000964311
0.000862013
0.000966633
0.00191069
0.00192087
0.00190091
0.00190687
0.00152503
0.00163866
0.00115486
0.000669549
0.00155926
0.00132221
0.00063655
0.00113002
0.000535868
0.000453027
0.000787114
0.000927321
0.001
0.000999966
0.00099092
0.000231816
0.000944946
0.000936018
0.00105709
0.000997345
0.00100304
0.00104238
0.00072131
0.000270256
0.000150578
0.000667306
0.000744413
4.63891e-05
0.000395948
0.00011089
0.000274011
0.000216391
0.000207658
0.000609772
4.41087e-05
4.35245e-05
4.64582e-05
8.92405e-05
0.000336853
7.56008e-05
0.000365948
0.000699825
0.00071795
0.000377145
0.000782686
6.87435e-05
0.000804187
5.38204e-05
0.000397301
0.00015297
0.000105016
0.000364636
0.000283892
0.000344194
0.000397748
0.000520808
0.000416117
0.000735429
0.00021365
0.000175625
0.000847838
0.000527345
0.000464354
0.00050537
0.000932734
6.82644e-05
0.000881055
0.000742513
0.000292242
0.000910983
0.000752197
0.000189257
0.000352484
0.000907575
0.000933711
0.000727192
9.03211e-05
0.000116846
0.00093368
0.000989599
0.000978973
0.00096327
0.000979231
0.000946298
0.000385928
0.000678732
0.000722151
0.000276226
0.000187609
5.18757e-05
0.000286723
0.000985572
0.000865455
8.01667e-05
0.000356241
0.000999976
0.000999996
0.00099991
0.000999962
9.33607e-05
0.000113772
0.000445563
0.000394368
0.000486996
0.000134717
0.00018152
7.45696e-05
4.43346e-05
0.000312754
0.000876008
0.000801996
0.000988528
0.000721223
0.000264785
0.000571641
0.000973124
0.000900854
0.000343159
0.000557244
0.000714108
0.000820288
0.000939425
0.000101818
0.000957859
0.000907386
0.000874282
0.00117133
0.00123515
0.00150658
0.00154559
0.000337352
0.000999118
0.000999743
0.000998409
0.00187283
0.00197359
0.0019997
0.00199995
0.00199998
0.0019867
0.000849037
0.00111925
0.00158088
0.00132039
0.0019861
0.000147225
0.000774862
0.000845214
0.000340955
0.000817799
0.002
0.002
0.00165103
0.000928292
0.000943192
0.000611284
0.00198493
0.00199991
0.002
0.002
0.002
0.00199866
0.00199174
0.002
0.002
0.002
0.002
0.000928993
0.000726311
0.000952056
0.002
0.002
0.002
0.00199375
0.00129913
0.00134592
0.00199684
0.00198541
0.00189451
0.00196531
0.00190539
0.00199966
0.00199885
0.002
0.002
0.002
0.002
0.000954747
0.000688672
0.000985918
0.000481718
0.000841041
0.00187744
0.00158446
0.00098775
0.000999999
0.000999915
0.000999992
0.00054224
0.000501959
0.000806065
0.000990773
0.000902199
5.16761e-05
0.000377461
0.000156036
0.000123723
0.000642001
0.000621243
0.000384691
0.000798703
0.000917082
0.000978887
0.000917106
0.000212345
0.00079988
0.000998664
0.000999794
0.00099978
0.00099857
0.000984634
0.000997632
0.000997517
0.00098775
0.000244158
0.000566293
0.000346187
0.000799865
0.000999796
0.00099951
0.000796074
0.00015233
0.000994414
0.000957075
0.000987758
0.00099524
0.000985219
0.000225496
0.000206053
8.66436e-05
0.000998217
0.000141276
0.00024719
0.000232073
0.000400368
0.000718881
0.000912814
7.73339e-05
0.000268899
0.000158522
0.0009316
0.00087672
5.1213e-05
0.000719828
0.000997531
0.000998575
0.000999694
0.000981529
0.000990676
0.00099755
0.000673787
0.00026361
0.000975633
0.000999926
0.000999819
0.000636584
0.000924554
0.000995648
0.000989458
0.000980816
0.000322224
0.000275271
0.000290692
0.00020739
0.000999576
0.000999185
0.000999392
0.000844913
0.000108512
0.000825918
0.000905848
0.000952077
0.000993153
0.000996237
0.000235474
0.000999847
0.0009984
0.000921362
7.13215e-05
0.000179865
0.00027992
0.00059747
0.000134314
0.000280067
0.000593342
0.000344421
0.00076537
0.000689804
0.000798917
0.000957249
0.00098755
0.000484184
0.000335427
0.000209457
0.000852304
0.000921219
0.000986448
0.000187124
0.000621762
0.000330653
0.00057059
0.000378345
0.000999734
0.000997793
0.000908475
0.00078125
0.00088309
0.000870278
0.000998051
0.000783583
0.00076839
0.000796419
0.000608507
0.000304412
0.000322809
0.000114152
0.000198712
0.000159157
0.000272091
0.000937665
0.000754293
0.000829603
0.000981265
0.00086971
0.000360637
0.000992468
0.000985993
0.000985107
0.000998151
0.000216847
4.29483e-05
0.000448728
0.000145621
0.000645308
0.000252543
0.000175124
0.000977059
0.000910041
0.000948096
0.00095559
0.000993439
0.00099233
0.000983388
0.000997699
0.00163979
0.00117307
0.00187775
0.00118778
0.00141321
0.00167746
0.00143964
0.00179707
0.0006864
0.000962284
0.000965349
0.00099534
0.000991
0.00098026
0.00110954
0.00158858
0.0018344
0.00150595
0.00191652
0.00162868
0.00177258
0.000763082
0.00192365
0.00195452
0.00119016
0.00135506
0.001
0.000590543
0.000594065
0.000972601
0.000957585
0.000977641
0.000455022
0.000984771
0.000448366
0.000947511
0.000908487
0.000746449
0.002
0.002
0.00199999
0.00199994
0.002
0.002
0.002
0.002
0.002
0.002
0.000176996
0.00190776
0.00191491
0.00199998
0.002
0.00199997
0.00199757
0.00199813
0.00199985
0.000948569
0.00122911
0.00181374
0.00177945
0.00189647
0.00196076
0.0019587
0.00186084
0.000993767
0.000439621
0.0009847
0.000774519
0.000946443
0.000587491
0.000178227
0.000215736
0.00074599
0.000635991
0.000613447
0.000381446
0.000882564
0.000937839
0.000840533
0.00177586
0.00194519
0.00197375
0.00199522
0.00198998
0.00199922
0.00199997
0.00199534
0.00199978
0.00199999
0.00199998
0.002
0.002
0.002
0.002
0.000174659
0.002
0.00199996
0.0019999
0.00199999
0.000377764
0.000564502
0.000713121
0.000948866
0.00117681
0.00116776
0.00161767
0.002
0.002
0.002
0.002
0.000704554
0.00109533
0.0013163
0.00143877
0.001
0.002
0.00199999
0.002
0.002
0.002
0.002
0.002
0.00195965
0.00167523
0.00191125
0.00186222
0.00199903
0.00199998
0.00199994
0.00199992
0.00199999
0.00199992
0.00199944
0.00199936
0.00199914
0.00199939
0.00199994
0.00199994
0.002
0.00199996
0.002
0.002
0.002
0.00199998
0.000664682
0.000557957
0.000612843
0.000493668
0.000694606
0.000694717
0.000470988
0.000153
0.000650598
0.000738001
0.00079786
0.000946092
0.000690246
0.000434943
0.000685221
0.000748653
0.000304428
0.000795962
0.000717092
0.000340012
0.000818335
0.00199997
0.002
0.002
0.002
0.00199672
0.00199959
0.00199973
0.00197732
0.00199915
0.00196835
0.00181394
0.00199083
0.00197049
0.00188462
0.00199045
0.00199772
0.00195075
0.00176511
0.00195755
0.00183428
0.00188189
0.00197432
0.001
0.0014408
0.00103876
0.0015808
0.00159721
0.00171481
0.002
0.002
0.002
0.00199978
0.00199997
0.00199998
0.002
0.002
0.002
0.002
0.002
0.002
0.002
0.002
0.002
0.002
0.002
0.002
0.000908266
0.00024822
0.000748249
0.000327983
0.00076655
0.000313561
0.000263988
0.0019999
0.00199979
0.00199991
0.00199996
0.00195726
0.00194339
0.00179369
0.00199329
0.00194873
0.00172996
0.00199736
0.00199018
0.00117601
0.00186126
0.00173704
0.0012729
0.00168994
0.00166609
0.00121315
0.00124505
0.0017235
0.00199999
0.00199999
0.0019997
0.00199997
0.002
0.002
0.002
0.002
0.002
0.002
0.002
0.00199995
0.002
0.000772664
0.00070043
0.001982
0.00199993
0.00199819
0.00199852
0.00198589
0.0019961
0.00199982
0.00148296
0.00120875
0.00193799
0.00189586
0.00190542
0.00190699
0.0019926
0.00197088
0.00198831
0.00199618
0.0019561
0.00194531
0.00195768
0.00198898
0.00199042
0.00199994
0.002
0.0019872
0.0019999
0.00199999
0.00199999
0.000975595
0.000872819
0.000970909
0.00084999
0.000572943
0.000906932
0.000636416
0.00030875
0.000677231
0.000260042
0.00072248
0.00130365
0.000954154
0.000264618
0.00197628
0.00182796
0.00190112
0.00188554
0.00199073
0.00145892
0.00174284
0.00136064
0.00161009
0.00100442
0.000659771
0.000481803
0.0018519
0.001451
0.00105656
0.00123121
0.00112395
0.000929589
0.000969504
0.000918892
0.000996181
0.000999822
0.00101779
0.000286004
0.000599389
0.000539058
0.000910236
0.000964755
0.000999402
0.000935087
0.000816554
0.000999665
0.000999778
0.000999951
0.000276875
0.00035764
0.000951119
0.000209614
0.000690046
0.000526383
0.000785574
0.000769601
0.000990462
0.00091223
0.000999974
0.000999996
0.000987511
0.00099997
0.000999995
0.000919794
0.000525602
0.000751909
0.000909486
0.000135972
0.000554416
0.000788105
0.000324238
0.000972376
0.000983963
0.000951893
0.000846352
0.000970975
0.000917547
0.000266605
0.000722046
0.000416209
0.000287262
0.000618203
0.000770997
0.000615927
0.000358793
0.00090524
0.000952763
0.000593819
0.000699126
0.000861931
0.000725883
0.00030558
0.000588657
0.00058384
0.000230678
0.000186459
0.000584433
0.00067341
0.000225526
0.000179961
0.000382754
0.000759391
0.000875433
0.000928253
0.000780397
0.000254508
0.000727301
0.000907248
0.000464729
0.000877463
6.96458e-05
0.000649319
0.000432885
0.000829297
0.000464421
0.000243088
0.000605301
0.000774786
0.000885127
0.000980091
0.000955139
0.000912706
0.000335899
0.000731282
0.000953773
0.000914533
0.000906876
0.000988596
0.000952373
0.000983845
0.000910352
0.000981404
0.000996759
0.000985621
0.000995695
0.000869601
0.00024508
0.000601339
0.000862687
0.000729735
0.000939922
0.000987181
0.000894565
0.000977796
0.000966567
0.000688772
0.000364382
0.000609061
0.000970092
0.000994892
0.000994684
0.00097065
0.000996946
0.000996971
0.000998613
0.000998749
0.000808014
0.000912325
0.000917513
0.000569455
0.000242113
0.00030155
0.000946259
0.000348419
0.000971122
0.000978484
0.000969776
0.000884898
0.000995568
0.000999817
0.000998406
8.18816e-05
0.000294259
0.000219308
0.000195152
0.000627801
0.000233793
0.000433361
0.00015204
0.000175918
5.95209e-05
0.000551452
0.000639754
0.000220072
0.000404049
0.000576726
0.000780379
0.000931436
0.000884965
0.000861721
0.000316399
0.000831443
0.000981847
0.000912964
9.44865e-05
0.000311597
0.000134213
4.26107e-05
0.000672225
0.000533602
0.000260913
0.00094253
0.000825923
0.000437028
0.000382856
0.000817039
0.000775693
0.000651357
0.000205109
0.000693975
0.000249915
0.000702365
0.00087737
0.000921713
0.000897456
0.000907425
0.000762306
0.00092491
0.000863271
0.000176338
0.000213822
0.000163649
0.000533053
0.000604469
4.41823e-05
0.000116922
0.000398839
0.000157011
0.000488251
0.000420661
0.000848816
0.00064136
0.000246555
0.000594445
0.000259463
0.000898886
0.000950577
0.000743212
0.000990296
0.000846964
0.000871279
0.000960593
0.000952928
0.000644692
0.000163973
0.000140089
4.34422e-05
0.000107088
8.94671e-05
4.60249e-05
0.000516324
0.000286009
0.0001603
0.000156058
0.000690914
0.000907469
0.000924067
0.000492949
0.000679706
0.000806199
0.000355924
0.000971744
0.000767601
0.000483573
0.000918681
0.000956041
0.00075233
0.000842499
0.000759496
0.000874868
0.000930371
0.000887853
0.000949818
0.000396347
0.000984318
0.000888438
0.00090019
0.000970497
0.000688941
0.000268809
0.000273946
0.000675348
0.000995178
0.000994008
0.000978452
0.000997404
0.000992663
0.000986012
0.000664441
0.000904319
0.000274991
0.000900868
0.000990971
0.000986334
0.000919215
0.000989463
0.000766586
0.000996763
0.000996305
0.000999192
0.000983059
0.00095851
0.000708758
0.000426843
0.000962803
0.00025241
0.000976321
0.000400045
0.000997795
0.000990831
0.000995193
0.000999909
0.000994924
0.000993989
0.000998955
0.00099949
0.000999889
0.000999613
0.000662324
0.000350798
0.000861386
0.000928927
0.000953606
0.000618826
0.000323771
0.000862765
0.000800708
0.000868952
0.000868267
0.000991934
0.000997472
0.000998573
0.000993748
0.000952835
0.000893903
0.000968614
0.000850099
0.000735807
0.000908352
0.00096284
0.000992068
0.000970289
0.000987095
0.000366785
0.00080853
0.000964539
0.000583934
0.000996931
0.000995
0.000996018
0.000998335
0.000989857
0.000881313
0.000965324
0.00093296
0.000778458
0.000974244
0.000980701
0.000983731
0.000989048
0.000997465
0.000993704
0.000999766
0.000999414
0.000999537
0.000999003
0.000241036
0.00057316
0.000215854
0.000694851
0.000878502
0.0009599
0.000862323
0.000949851
0.000968435
0.000981946
0.000955267
0.000900441
0.000890348
0.000575864
0.000184769
0.000230361
5.01359e-05
0.000289449
0.00033953
0.000189215
0.000254603
0.000469862
0.000418907
0.00023978
0.000136571
7.64216e-05
0.000979827
8.74403e-05
5.67029e-05
0.000245783
0.000628741
0.00096394
0.000983022
0.000969405
0.000994737
0.000146874
6.18254e-05
0.000170735
0.000757128
0.000910831
0.000960652
0.000930898
0.000999035
0.000316575
0.000238925
0.00022648
0.000998029
0.000999823
0.000984164
0.000408076
0.000665272
0.000650237
0.00099603
0.000966731
0.000876006
0.00092259
0.000970455
0.00097796
0.000871305
0.000996491
0.000983347
0.000842072
0.000990225
0.000947455
0.000966981
0.000908043
0.000884315
0.000994559
0.000999707
0.00069154
0.000780952
0.000698343
0.000301568
0.000991774
0.000962194
0.00079425
0.000915213
0.000923712
0.000984831
0.000967998
0.000971414
0.000895969
0.000929101
0.000955586
0.000714721
0.000908134
0.00074068
0.000652059
0.000482488
0.000269939
0.000763808
0.000930534
0.000899406
0.000702993
0.00022879
0.001
0.000940752
0.000983878
0.000993852
0.000992741
0.000973062
0.000998558
0.000977087
0.000998333
0.000994611
0.000985155
0.000305261
0.000319558
0.000995205
0.000998582
0.000998458
0.000734827
0.000681998
0.0008845
0.000902949
0.000999996
0.000999986
0.000964615
0.000999967
0.000999704
0.000999997
0.001
0.001
0.000999884
0.000610637
0.000727748
0.000853241
8.67071e-05
0.000989798
0.000991433
0.000606318
0.000247047
0.000619271
0.000661137
0.000852665
0.000963261
0.000847882
0.000920775
0.000273027
0.000497993
6.162e-05
0.000999866
0.000728359
0.000927728
0.000989002
0.000398527
0.000997527
0.000999188
0.000905909
0.000829462
0.000960135
0.000979556
0.000501516
0.00056956
0.000994956
0.000330928
0.000594235
0.00083855
0.000726598
0.000493773
0.000238857
0.000586071
0.000594997
0.0001964
0.000645559
0.001
0.001
0.000230454
0.000230413
0.000210609
0.000224908
7.83852e-05
0.00069436
0.001
0.001
0.000897336
0.000983387
0.000974075
0.000948961
0.000196369
0.000791546
0.000908318
0.000603348
0.000651175
0.000622023
0.00086816
0.000393851
0.000783219
0.000978548
0.000617067
0.000582967
0.000710827
0.000117918
0.000491777
0.000414968
0.000588333
0.000900765
0.000997338
0.000991285
0.000881593
0.000833538
0.000566487
0.000821563
0.000826796
0.000865247
0.00052863
0.000139265
0.000324821
0.000996802
0.000909052
0.00098338
0.000999674
0.000999986
0.000999029
0.000690208
0.000280561
0.000700351
0.000953945
0.000920981
0.000925286
0.000982778
0.000390716
0.000209474
0.000537888
0.000588521
0.000912282
0.000933541
0.000817794
0.000754724
0.000750876
0.00031453
0.000366964
0.001
0.001
0.001
0.001
0.000846247
0.000552798
0.000393389
0.000514319
0.000815433
0.000863042
0.000246298
0.000868425
0.000959213
0.000957078
0.000985406
0.000982776
0.00099771
0.000991763
0.000998752
0.000997651
0.000999589
0.000999939
0.000999791
0.000996853
0.000999975
0.00099977
0.00089458
0.000901736
0.000816213
0.000786495
0.000980662
0.000959809
0.000266549
0.000961591
0.000866837
0.000975839
0.000647352
0.000980188
0.000856734
0.000692015
0.000420674
0.000679632
0.000265292
0.000639701
0.000340014
0.000180479
0.000565275
0.000292358
0.000621515
0.000839704
0.000726525
0.000942869
0.000872101
0.000565436
0.000402729
0.000155859
0.000765221
0.000656973
0.000755696
0.000989022
0.000985191
0.000912137
0.00077826
0.000953584
0.000852025
0.000164615
0.000149962
5.72645e-05
0.000995535
0.000628187
0.000264758
5.07872e-05
0.000516799
0.001
0.001
0.001
0.0008419
0.0008666
0.000324991
0.000651902
0.000888046
0.000646988
0.000418332
0.000906928
0.000732526
0.000791337
0.000647043
0.000417082
0.000914039
0.000640082
0.000731209
0.00088436
0.000885655
0.000676964
0.000773746
0.000796843
0.000599525
0.000825505
0.000955198
0.000998357
0.000998703
0.000998591
0.000997102
0.00097259
0.000369781
0.000809909
0.000545068
0.000885864
0.000662431
0.000321252
0.000783368
0.000903834
0.000993004
0.000284295
0.000400448
0.001
0.000235062
0.000897476
0.00019129
0.00092012
0.000966582
0.000820832
0.001
0.001
0.000877961
0.000974215
0.000706517
0.000434897
0.000734134
0.000426559
0.000200029
0.000871825
0.000750539
0.000737219
0.000928449
0.000860179
0.000630982
0.000949365
0.000857375
0.000765745
0.000982001
0.000981455
0.000443448
0.000728048
0.000744002
0.000624115
0.000217443
0.000434276
0.000676471
0.000264059
0.000688297
0.000364557
0.000999992
0.000996089
0.001
0.000537121
0.000999116
0.000997563
0.000995922
0.000981901
0.000751793
0.000500078
7.3534e-05
0.00056565
0.000171398
0.000208118
0.000471906
0.000829196
0.00094374
0.000940615
0.000827001
0.000592623
0.000164543
0.000217803
0.000576843
0.000844535
0.000592663
0.000935797
0.000989062
0.000971864
0.000968059
0.000990887
0.000995922
0.000975374
0.000915668
0.00095261
0.00098833
0.000999275
0.000984597
0.000998094
0.00095936
0.000999726
0.000999948
0.000999977
0.000995594
0.000999997
0.00099996
0.000997587
0.000999682
0.000992221
0.000999853
0.000998026
0.000999785
0.000999988
0.000999966
0.000999967
0.000909657
0.000914109
0.000570661
0.000762241
0.00076139
0.000776066
0.000631868
0.000794213
0.00095325
0.000934081
0.000984452
0.000826549
0.000409756
0.000999293
0.000752829
0.000556568
0.00190383
0.0019665
0.00195234
0.000590542
0.0010384
0.00129611
0.000157419
0.000164303
0.000135095
0.000498067
0.00199978
0.002
0.000761179
0.0019988
0.00199771
0.00190238
0.00195208
0.00013796
0.000941437
0.000904333
0.000682709
0.000623727
0.000236989
0.000630844
0.000231539
0.000998012
0.000890169
0.000916788
0.000883194
0.000753829
0.000769966
0.000444775
0.000985732
0.000851148
0.000998247
0.00060559
0.000888394
0.000962423
0.000338947
0.000760399
0.000522528
0.000732924
0.000223531
0.000365495
0.000616896
0.000375365
0.000380948
0.000354791
0.000510734
0.000703503
0.000913135
0.00114713
0.000999026
0.00089769
0.000503592
0.000227271
0.00043518
0.000809
0.00199982
0.00199967
0.000869678
0.00114495
0.00141366
0.000995697