/*--------------------------------*- C++ -*----------------------------------*\
  =========                 |
  \\      /  F ield         | OpenFOAM: The Open Source CFD Toolbox
   \\    /   O peration     | Website:  https://openfoam.org
    \\  /    A nd           | Version:  7
     \\/     M anipulation  |
\*---------------------------------------------------------------------------*/
FoamFile
{
    version     2.0;
    format      ascii;
    class       volScalarField;
    location    "0";
    object      thicknessFraction;
}
// * * * * * * * * * * * * * * * * * * * * * * * * * * * * * * * * * * * * * //

dimensions      [0 0 0 0 0 0 0];

internalField   uniform 0;

boundaryField
{
    defaultFaces
    {
        type            empty;
    }
    AortaInlet
    {
        type            fixedValue;
        value           nonuniform List<scalar> 
82
(
0
0
0
0
0
0
0
0
0
0
0
0
0
0
0
0
0
0
0
0
0
0
0
0
0.519144
0.452368
0.549396
0.499617
0.123149
0.129747
0.265736
0.0733662
0.184579
0.0561254
0.139614
0.125622
0.300993
0.0602893
0.182496
0.0557677
0.307203
0.46351
0.194438
0.473184
0.226707
0.444889
0.181467
0.316645
0.705636
0.469631
0.222209
0.552371
0.672524
0.513221
0.487969
0.469674
0.468336
0.48605
0.124267
0.401063
0.148664
0.119501
0.0565285
0.509651
0.19403
0.418366
0.18922
0.0695656
0.287129
0.118008
0.231301
0.567934
0.339915
0.157788
0.422149
0.147908
0.156626
0.149761
0.499304
0.393085
0.0761928
0.0571909
)
;
    }
    AortaOutlet
    {
        type            fixedValue;
        value           nonuniform List<scalar> 
62
(
0
0
0
0
0
0
0
0
0
0
0
0
0.345108
0.52594
0.156824
0.393789
0.390179
0.37378
0.379262
0.156439
0.119244
0.151819
0.422947
0.448015
0.294843
0.413923
0.125664
0.138791
0.145741
0.376222
0.145161
0.378812
0.523337
0.429905
0.0505569
0.0642379
0.240985
0.52078
0.474997
0.416004
0.24528
0.116874
0.118133
0.568162
0.143309
0.0638023
0.129934
0.368473
0.169823
0.0538362
0.286987
0.127047
0.113272
0.0485553
0.548498
0.126196
0.0669355
0.0716753
0.473995
0.121694
0.0929416
0.0685353
)
;
    }
    AortaWall
    {
        type            fixedValue;
        value           nonuniform List<scalar> 
6739
(
0
0
0
0
0
0
0
0
0
0
0
0
0
0
0
0
0
0
0
0
0
0
0
0
0
0
0
0
0
0
0
0
0
0
0
0
0
0
0
0
0
0
0
0
0
0
0
0
0
0
0
0
0
0
0
0
0
0
0
0
0
0
0
0
0
0
0
0
0
0
0
0
0
0
0
0
0
0
0
0
0
0
0
0
0
0
0
0
0
0
0
0
0
0
0
0
0
0
0
0
0
0
0
0
0
0
0
0
0
0
0
0
0
0
0
0
0
0
0
0
0
0
0
0
0
0
0
0
0
0
0
0
0
0
0
0
0
0
0
0
0
0
0
0
0
0
0
0
0
0
0
0
0
0
0
0
0
0
0
0
0
0
0
0
0
0
0
0
0
0
0
0
0
0
0
0
0
0
0
0
0
0
0
0
0
0
0
0
0
0
0
0
0
0
0
0
0
0
0
0
0
0
0
0
0
0
0
0
0
0
0
0
0
0
0
0
0
0
0
0
0
0
0
0
0
0
0
0
0
0
0
0
0
0
0
0
0
0
0
0
0
0
0
0
0
0
0
0
0
0
0
0
0
0
0
0
0
0
0
0
0
0
0
0
0
0
0
0
0
0
0
0
0
0
0
0
0
0
0
0
0
0
0
0
0
0
0
0
0
0
0
0
0
0
0
0
0
0
0
0
0
0
0
0
0
0
0
0
0
0
0
0
0
0
0
0
0
0
0
0
0
0
0
0
0
0
0
0
0
0
0
0
0
0
0
0
0
0
0
0
0
0
0
0
0
0
0
0
0
0
0
0
0
0
0
0
0
0
0
0
0
0
0
0
0
0
0
0
0
0
0
0
0
0
0
0
0
0
0
0
0
0
0
0
0
0
0
0
0
0
0
0
0
0
0
0
0
0
0
0
0
0
0
0
0
0
0
0
0
0
0
0
0
0
0
0
0
0
0
0
0
0
0
0
0
0
0
0
0
0
0
0
0
0
0
0
0
0
0
0
0
0
0
0
0
0
0
0
0
0
0
0
0
0
0
0
0
0
0
0
0
0
0
0
0
0
0
0
0
0
0
0
0
0
0
0
0
0
0
0
0
0
0
0
0
0
0
0
0
0
0
0
0
0
0
0
0
0
0
0
0
0
0
0
0
0
0
0
0
0
0
0
0
0
0
0
0
0
0
0
0
0
0
0
0
0
0
0
0
0
0
0
0
0
0
0
0
0
0
0
0
0
0
0
0
0
0
0
0
0
0
0
0
0
0
0
0
0
0
0
0
0
0
0
0
0
0
0
0
0
0
0
0
0
0
0
0
0
0
0
0
0
0
0
0
0
0
0
0
0
0
0
0
0
0
0
0
0
0
0
0
0
0
0
0
0
0
0
0
0
0
0
0
0
0
0
0
0
0
0
0
0
0
0
0
0
0
0
0
0
0
0
0
0
0
0
0
0
0
0
0
0
0
0
0
0
0
0
0
0
0
0
0
0
0
0
0
0
0
0
0
0
0
0
0
0
0
0
0
0
0
0
0
0
0
0
0
0
0
0
0
0
0
0
0
0
0
0
0
0
0
0
0
0
0
0
0
0
0
0
0
0
0
0
0
0
0
0
0
0
0
0
0
0
0
0
0
0
0
0
0
0
0
0
0
0
0
0
0
0
0
0
0
0
0
0
0
0
0
0
0
0
0
0
0
0
0
0
0
0
0
0
0
0
0
0
0
0
0
0
0
0
0
0
0
0
0
0
0
0
0
0
0
0
0
0
0
0
0
0
0
0
0
0
0
0
0
0
0
0
0
0
0
0
0
0
0
0
0
0
0
0
0
0
0
0
0
0
0
0
0
0
0
0
0
0
0
0
0
0
0
0
0
0
0
0
0
0
0
0
0
0
0
0
0
0
0
0
0
0
0
0
0
0
0
0
0
0
0
0
0
0
0
0
0
0
0
0
0
0
0
0
0
0
0
0
0
0
0
0
0
0
0
0
0
0
0
0
0
0
0
0
0
0
0
0
0
0
0
0
0
0
0
0
0
0
0
0
0
0
0
0
0
0
0
0
0
0
0
0
0
0
0
0
0
0
0
0
0
0
0
0
0
0
0
0
0
0
0
0
0
0
0
0
0
0
0
0
0
0
0
0
0
0
0
0
0
0
0
0
0
0
0
0
0
0
0
0
0
0
0
0
0
0
0
0
0
0
0
0
0
0
0
0
0
0
0
0
0
0
0
0
0
0
0
0
0
0
0
0
0
0
0
0
0
0
0
0
0
0
0
0
0
0
0
0
0
0
0
0
0
0
0
0
0
0
0
0
0
0
0
0
0
0
0
0
0
0
0
0
0
0
0
0
0
0
0
0
0
0
0
0
0
0
0
0
0
0
0
0
0
0
0
0
0
0
0
0
0
0
0
0
0
0
0
0
0
0
0
0
0
0
0
0
0
0
0
0
0
0
0
0
0
0
0
0
0
0
0
0
0
0
0
0
0
0
0
0
0
0
0
0
0
0
0
0
0
0
0
0
0
0
0
0
0
0
0
0
0
0
0
0
0
0
0
0
0
0
0
0
0
0
0
0
0
0
0
0
0
0
0
0
0
0
0
0
0
0
0
0
0
0
0
0
0
0
0
0
0
0
0
0
0
0
0
0
0
0
0
0
0
0
0
0
0
0
0
0
0
0
0
0
0
0
0
0
0
0
0
0
0
0
0
0
0
0
0
0
0
0
0
0
0
0
0
0
0
0
0
0
0
0
0
0
0
0
0
0
0
0
0
0
0
0
0
0
0
0
0
0
0
0
0
0
0
0
0
0
0
0
0
0
0
0
0
0
0
0
0
0
0
0
0
0
0
0
0
0
0
0
0
0
0
0
0
0
0
0
0
0
0
0
0
0
0
0
0
0
0
0
0
0
0
0
0
0
0
0
0
0
0
0
0
0
0
0
0
0
0
0
0
0
0
0
0
0
0
0
0
0
0.375263
0.543442
0.999773
0.877196
0.87712
0.874429
0.980481
0.642406
0.742839
0.0782712
0.999899
0.967445
0.769166
0.931144
0.184318
0.810575
0.874279
0.655873
0.253187
0.658077
0.928158
0.974245
0.870891
0.885748
0.779142
0.837568
0.521122
0.0449242
0.0897229
0.989024
0.740463
0.461172
0.209774
0.550423
0.824585
0.960059
0.980154
0.225881
0.96567
0.966946
0.863123
0.614572
0.188092
0.696888
0.190533
0.464805
0.188385
0.471164
1
0.154565
0.438068
0.730608
0.82437
0.440249
0.998837
0.999975
0.995683
0.859553
0.483609
0.999953
0.999657
0.998742
0.685827
0.994928
0.815407
0.999079
0.787418
0.5053
1
0.999915
0.827234
0.999985
0.877613
0.763452
0.992857
0.867001
0.922267
0.999994
0.650443
0.997179
0.722957
0.324338
0.943953
0.869801
0.96729
0.264152
0.798362
0.58476
0.993224
0.889055
0.99998
0.977142
0.239523
0.757077
0.171652
0.582109
0.999976
0.356758
0.827855
0.999359
0.997753
0.107169
0.385654
0.882592
0.722277
0.965232
0.979931
0.999891
0.26953
0.958916
0.999861
0.859926
0.968504
0.372784
0.935617
0.999371
0.141553
0.79847
0.99793
0.812413
0.568362
0.532026
0.42702
0.223389
0.59496
0.207652
0.99843
0.244525
0.592018
0.991398
0.99672
0.997346
0.271581
0.922635
0.999986
0.675289
0.639408
0.394917
0.976733
0.249143
0.987905
0.324027
0.84449
0.997283
0.999736
0.892321
0.93552
0.999992
0.999628
0.804953
0.794546
0.998878
0.0952451
0.999835
0.857979
0.901961
0.861235
0.843546
0.91545
0.8185
0.171409
0.943583
0.999837
0.140355
0.998101
0.893613
0.713408
0.841482
0.998977
0.815573
0.995352
0.268008
0.990498
0.999529
0.448367
0.999518
0.795775
0.385664
0.708048
0.526033
0.14093
0.131239
0.320201
0.0699489
0.746295
0.785223
0.341071
0.446907
0.465215
0.392758
0.227639
0.986638
0.740369
0.568423
0.77776
0.975872
0.522495
0.998803
0.198475
0.997111
0.999651
0.998921
0.779558
0.983186
0.960596
0.994993
0.975932
0.997811
0.998337
0.990712
0.834928
0.459959
0.455092
0.961556
0.978797
0.959305
0.996672
0.987338
0.99993
0.722276
0.999976
0.999669
0.979844
0.470609
0.221737
0.961883
0.179747
0.995574
0.969708
0.973288
0.230153
0.957195
0.256809
0.910482
0.463805
0.988644
0.992771
0.0893925
0.997709
0.99727
0.202311
0.648406
0.979286
0.851025
1
0.999881
0.920873
0.866017
0.234277
0.545519
0.213653
0.994239
0.837755
0.926163
0.983026
0.997247
0.994093
0.954793
0.884597
0.234804
0.669817
0.825898
0.99699
0.139698
0.0701391
0.744628
0.520374
0.678908
0.856489
0.999994
0.999998
0.986595
0.852279
0.819117
0.879563
0.853337
0.858582
0.395159
0.973378
0.962774
0.996265
0.989021
0.999953
0.999297
0.999999
0.999996
1
0.80034
0.998862
0.999919
0.999997
0.999998
0.631616
0.893112
1
1
0.934407
0.953952
0.919678
0.814888
0.801413
0.804954
0.855328
0.90668
1
0.999866
1
1
0.999998
0.715864
0.0712731
0.999999
0.876382
0.999619
0.974195
0.802234
0.986975
0.975725
0.993594
0.95342
1
1
0.999732
0.992791
0.879889
0.89152
0.948909
0.986763
0.999636
0.13942
0.264433
0.995597
0.444784
0.25771
0.777532
0.729313
0.997062
0.929832
0.971464
0.996713
0.368028
0.0695552
0.326825
0.912169
0.998243
0.294102
0.245406
0.465173
0.826165
0.775024
0.239798
0.933186
0.832801
0.0523853
0.73065
0.997224
0.164231
0.536153
0.506136
0.0465606
0.644386
0.134459
0.367051
0.990287
0.941642
0.174581
0.243827
0.877505
0.579536
0.940825
0.232889
0.384644
0.228697
0.970407
0.312954
0.980005
0.974172
0.771825
0.712621
0.910672
0.582695
0.191759
0.140318
0.995947
0.963865
0.993816
0.726587
0.979361
0.123209
0.134901
0.57119
0.0718028
0.908591
0.843748
0.808408
0.999922
0.301354
0.286169
0.673655
0.984145
0.983465
0.442305
0.372018
0.897877
0.212194
0.177086
0.439238
0.995169
0.241045
0.190388
0.493627
0.919064
0.999097
0.900088
0.850533
0.837826
0.807521
0.451717
0.257414
0.736042
0.679471
0.994767
0.645077
0.391146
0.984741
0.994164
0.991281
0.963177
0.970503
0.995347
0.999817
0.99918
0.435189
0.46674
0.967743
0.939863
0.525198
0.949957
0.626955
0.939852
0.988592
0.865978
0.815981
0.898395
0.968492
0.973588
0.426486
0.841854
0.971144
0.964864
0.993093
0.991696
0.0786223
0.940478
0.890531
0.802541
0.927981
0.925785
0.970867
0.950635
0.837015
0.963407
0.86548
0.997214
0.998585
0.801477
0.844409
0.822191
0.999947
0.651473
0.677005
0.87656
0.761916
0.493811
0.907787
0.803722
0.948461
0.478504
0.830746
0.176819
0.501092
0.926143
0.959116
0.947953
0.960617
0.0454774
0.484495
0.136248
0.728116
0.964878
0.762051
0.971181
0.999946
0.999988
0.401252
0.611352
0.0488774
0.168999
0.315678
0.314282
0.196485
0.344553
0.451518
0.245016
0.155897
0.180577
0.988692
0.957687
0.771514
0.103037
0.932081
0.925672
0.805923
0.213563
0.360976
0.977459
0.99378
0.428854
0.748642
0.989771
0.997974
0.55123
0.986398
0.93538
0.999459
0.991782
0.346079
0.923675
0.434446
0.999898
0.999337
0.999973
0.999873
0.346099
0.999155
0.438092
0.900732
0.928124
0.971274
0.924078
0.994089
0.851304
0.782288
0.592522
0.995915
0.148058
0.980234
0.984933
0.981751
0.956885
0.994786
0.996984
0.999202
0.999114
0.412374
0.231277
0.979861
0.366485
0.344515
0.873142
0.765825
0.838475
0.894185
0.999309
0.941471
0.279554
0.887062
0.69032
0.882981
0.994115
0.888634
0.856031
0.910441
0.999985
0.999996
0.999812
0.0694416
0.95162
0.98814
0.778146
0.895718
0.85773
0.941298
0.960741
0.983079
0.852893
0.836102
0.944985
0.940874
0.886522
0.972923
0.971846
0.910542
0.340424
0.691636
0.999846
0.741149
0.996549
0.999916
0.834207
0.573387
0.977316
0.99735
0.980905
0.787277
0.998486
0.999959
1
0.999999
0.999993
0.997857
0.992761
0.999591
0.999992
0.99992
0.973475
0.967494
0.994938
0.998973
0.873809
0.921572
0.974274
0.994674
0.998858
0.48448
0.907019
0.700177
0.354415
0.988188
0.8891
0.332965
1
1
0.908358
0.687327
0.700359
0.852546
0.993394
0.998093
0.999724
0.999976
0.9987
0.999593
0.999539
0.999758
0.999972
0.99999
0.0548035
0.339997
0.350903
0.653404
0.16948
0.0860848
0.646895
0.238553
0.362093
0.999919
0.999948
0.808935
0.993627
0.998933
0.964311
0.862013
0.966633
0.955345
0.960433
0.950457
0.953434
0.762513
0.819329
0.577429
0.334775
0.779631
0.661106
0.318275
0.565012
0.267934
0.323591
0.393557
0.927321
1
0.999966
0.99092
0.231816
0.944946
0.936018
0.755067
0.997345
0.877661
0.595645
0.577048
0.18017
0.150578
0.667306
0.744413
0.0463891
0.395948
0.11089
0.274011
0.288521
0.207658
0.609772
0.0441087
0.0435245
0.0464582
0.0892405
0.336853
0.0756008
0.365948
0.699825
0.71795
0.377145
0.782686
0.0687435
0.804187
0.0538204
0.397301
0.15297
0.105016
0.364636
0.283892
0.344194
0.397748
0.520808
0.416117
0.735429
0.284867
0.351249
0.847838
0.527345
0.464354
0.50537
0.932734
0.0682644
0.881055
0.742513
0.292242
0.910983
0.752197
0.189257
0.352484
0.907575
0.933711
0.727192
0.180642
0.116846
0.93368
0.989599
0.978973
0.96327
0.979231
0.946298
0.385928
0.678732
0.722151
0.276226
0.187609
0.0518757
0.286723
0.985572
0.865455
0.0801667
0.356241
0.999976
0.999996
0.99991
0.999962
0.0933607
0.113772
0.445563
0.394368
0.486996
0.134717
0.18152
0.0745696
0.0443346
0.312754
0.876008
0.801996
0.988528
0.721223
0.264785
0.571641
0.973124
0.900854
0.428949
0.557244
0.714108
0.820288
0.939425
0.101818
0.957859
0.907386
0.874282
0.65074
0.823436
0.75329
0.772793
0.337352
0.999118
0.999743
0.998409
0.936414
0.986793
0.99985
0.999974
0.999988
0.99335
0.849037
0.870526
0.790442
0.840245
0.99305
0.147225
0.774862
0.845214
0.340955
0.817799
1
1
0.825516
0.928292
0.943192
0.611284
0.992464
0.999957
1
1
0.999999
0.999331
0.99587
1
1
1
1
0.79628
0.363156
0.740488
1
0.999999
1
0.996874
0.866089
0.856497
0.998418
0.992705
0.947256
0.982654
0.952693
0.999832
0.999426
1
1
1
1
0.795623
0.688672
0.985918
0.240859
0.420521
0.938722
0.792231
0.98775
0.999999
0.999915
0.999992
0.309851
0.334639
0.806065
0.990773
0.902199
0.0516761
0.377461
0.156036
0.123723
0.642001
0.621243
0.384691
0.798703
0.917082
0.978887
0.917106
0.212345
0.79988
0.998664
0.999794
0.99978
0.99857
0.984634
0.997632
0.997517
0.98775
0.244158
0.566293
0.346187
0.799865
0.999796
0.99951
0.796074
0.15233
0.994414
0.957075
0.987758
0.99524
0.98522
0.300662
0.206053
0.0866436
0.998217
0.141276
0.24719
0.232073
0.400368
0.718881
0.912814
0.0773339
0.268899
0.158522
0.9316
0.87672
0.051213
0.719828
0.997531
0.998575
0.999694
0.981529
0.990676
0.99755
0.673787
0.26361
0.975633
0.999926
0.999819
0.636584
0.924554
0.995648
0.989458
0.980816
0.322224
0.275271
0.290692
0.20739
0.999576
0.999185
0.999392
0.844913
0.108512
0.825918
0.905848
0.952077
0.993153
0.996237
0.235474
0.999847
0.9984
0.921362
0.0713215
0.179865
0.27992
0.59747
0.134314
0.280067
0.593342
0.344421
0.76537
0.689804
0.798917
0.957249
0.98755
0.484184
0.335427
0.209457
0.852304
0.921219
0.986448
0.187124
0.621762
0.330653
0.475492
0.315287
0.999734
0.997793
0.908475
0.78125
0.88309
0.870278
0.998051
0.783583
0.76839
0.796419
0.608507
0.304412
0.322809
0.114152
0.198712
0.139262
0.272091
0.937665
0.754293
0.829603
0.981265
0.760996
0.300531
0.992468
0.985993
0.985107
0.998151
0.216847
0.0429483
0.448728
0.145621
0.645308
0.252543
0.175124
0.977059
0.910041
0.948096
0.95559
0.993439
0.99233
0.983388
0.997699
0.819893
0.837906
0.938874
0.848415
0.847928
0.83873
0.71982
0.898537
0.6864
0.962284
0.965349
0.99534
0.991
0.98026
0.792528
0.794289
0.917199
0.752977
0.958261
0.814338
0.88629
0.763082
0.961827
0.977258
0.850111
0.846912
1
0.516725
0.594065
0.851026
0.820787
0.837978
0.455022
0.984771
0.448366
0.947511
0.908487
0.746449
0.999998
1
0.999994
0.999969
1
1
0.999998
1
1
0.999998
0.176996
0.953879
0.957455
0.999992
0.999999
0.999985
0.998787
0.999067
0.999926
0.948569
0.860374
0.906872
0.889727
0.948236
0.980378
0.97935
0.93042
0.993767
0.439621
0.9847
0.774519
0.946443
0.587491
0.178227
0.215736
0.74599
0.635991
0.613447
0.381446
0.882564
0.937839
0.840533
0.887931
0.972593
0.986877
0.997611
0.994991
0.999611
0.999985
0.997671
0.999888
0.999996
0.999988
0.999999
1
1
1
0.174659
1
0.999979
0.999948
0.999996
0.377764
0.564502
0.594267
0.790722
0.84058
0.849283
0.808834
1
1
0.999998
0.999999
0.440346
0.730217
0.658152
0.719385
1
1
0.999996
0.999999
1
1
1
1
0.979825
0.837615
0.955625
0.931111
0.999513
0.999991
0.999971
0.999958
0.999996
0.999961
0.999718
0.99968
0.999571
0.999696
0.99997
0.999968
0.999998
0.999982
1
1
0.999998
0.999992
0.664682
0.557957
0.612843
0.493668
0.694606
0.694717
0.470988
0.153
0.650598
0.738001
0.68388
0.78841
0.690246
0.434943
0.685221
0.748653
0.304428
0.795962
0.717092
0.340012
0.818335
0.999984
0.999999
1
1
0.998361
0.999796
0.999864
0.988658
0.999576
0.984173
0.906968
0.995413
0.985245
0.942308
0.995225
0.998862
0.975374
0.882557
0.978775
0.91714
0.940943
0.98716
1
0.720402
0.890363
0.790399
0.798606
0.857405
0.999999
1
0.999999
0.999889
0.999985
0.99999
1
0.999999
0.999999
1
1
1
1
1
1
1
1
1
0.908266
0.24822
0.748249
0.327983
0.76655
0.313561
0.21999
0.999949
0.999896
0.999953
0.999978
0.978632
0.971694
0.896845
0.996644
0.974363
0.864979
0.99868
0.995091
0.84001
0.930628
0.868519
0.848599
0.844968
0.833047
0.866537
0.889318
0.861748
0.999997
0.999993
0.999851
0.999984
0.999999
0.999998
1
1
1
1
1
0.999975
1
0.772664
0.583692
0.991
0.999964
0.999096
0.999259
0.992944
0.998051
0.999909
0.847405
0.86339
0.968995
0.947932
0.952711
0.953496
0.9963
0.98544
0.994155
0.998092
0.978052
0.972653
0.978842
0.99449
0.995212
0.999969
1
0.9936
0.999949
0.999997
0.999994
0.812996
0.872819
0.970909
0.84999
0.515649
0.906932
0.636416
0.30875
0.677231
0.260042
0.72248
0.651825
0.530085
0.132309
0.988138
0.913979
0.950559
0.942769
0.995366
0.729461
0.871421
0.777511
0.805047
0.717446
0.329886
0.240901
0.92595
0.725502
0.704376
0.615607
0.7493
0.79679
0.848316
0.612595
0.996181
0.874844
0.508893
0.245146
0.599389
0.539058
0.910236
0.964755
0.999402
0.935087
0.816554
0.999665
0.999778
0.999952
0.276875
0.17882
0.951119
0.209614
0.690046
0.526383
0.785574
0.769601
0.990462
0.91223
0.999974
0.999996
0.987511
0.99997
0.999995
0.919794
0.525602
0.751909
0.909486
0.135972
0.554416
0.788105
0.324238
0.972376
0.983963
0.951893
0.846352
0.970975
0.917547
0.266605
0.722046
0.416209
0.287262
0.618203
0.770997
0.615927
0.358793
0.90524
0.952763
0.593819
0.699126
0.861931
0.725883
0.30558
0.588657
0.58384
0.230678
0.186459
0.584433
0.67341
0.225526
0.179961
0.382754
0.759391
0.875433
0.928253
0.780397
0.254508
0.727301
0.907248
0.464729
0.877463
0.0696458
0.649319
0.432885
0.829297
0.464421
0.243088
0.605301
0.774786
0.885127
0.980091
0.955139
0.912706
0.335899
0.731282
0.953773
0.914533
0.906876
0.988596
0.952373
0.983845
0.910352
0.981404
0.996759
0.985621
0.995695
0.869601
0.24508
0.601339
0.862687
0.729735
0.939922
0.987181
0.894565
0.977796
0.966567
0.688772
0.364382
0.609061
0.970092
0.994892
0.994684
0.97065
0.996946
0.996971
0.998613
0.998749
0.808014
0.912325
0.917513
0.569455
0.242113
0.30155
0.946259
0.348419
0.971122
0.978484
0.969776
0.884898
0.995568
0.999817
0.998406
0.0818816
0.294259
0.219308
0.195152
0.627801
0.233793
0.433361
0.15204
0.175918
0.0595209
0.551452
0.639754
0.220072
0.404049
0.576726
0.780379
0.931436
0.884965
0.861721
0.316399
0.831443
0.981847
0.912964
0.0944865
0.311597
0.134213
0.0426107
0.672225
0.533602
0.260913
0.94253
0.825923
0.437028
0.382856
0.817039
0.775693
0.651357
0.205109
0.693975
0.249915
0.702365
0.87737
0.921713
0.897456
0.907425
0.762306
0.92491
0.863271
0.176338
0.213822
0.163649
0.533053
0.604469
0.0441823
0.116922
0.398839
0.157011
0.488251
0.420661
0.848816
0.64136
0.246555
0.594445
0.259463
0.898886
0.950577
0.743212
0.990296
0.846964
0.871279
0.960593
0.952928
0.644692
0.163973
0.140089
0.0434422
0.107088
0.0894671
0.0460249
0.516324
0.286009
0.1603
0.156058
0.690914
0.907469
0.924067
0.492949
0.679706
0.806199
0.355924
0.971744
0.767601
0.483573
0.918681
0.956041
0.75233
0.842499
0.759496
0.874868
0.930371
0.887853
0.949818
0.396347
0.984318
0.888438
0.90019
0.970497
0.688941
0.268809
0.273946
0.675348
0.995178
0.994008
0.978452
0.997404
0.992663
0.986012
0.664441
0.904319
0.274991
0.900868
0.990971
0.986334
0.919215
0.989463
0.766586
0.996763
0.996305
0.999192
0.983059
0.95851
0.708758
0.426843
0.962803
0.25241
0.976321
0.400045
0.997795
0.990831
0.995193
0.999909
0.994924
0.993989
0.998955
0.99949
0.999889
0.999613
0.662324
0.350798
0.861386
0.928927
0.953606
0.618826
0.323771
0.862765
0.800708
0.868952
0.868267
0.991934
0.997472
0.998573
0.993748
0.952835
0.893903
0.968614
0.850099
0.735807
0.908352
0.96284
0.992068
0.970289
0.987095
0.366785
0.80853
0.964539
0.583934
0.996931
0.995
0.996018
0.998335
0.989857
0.881313
0.965324
0.93296
0.778458
0.974244
0.980701
0.983731
0.989048
0.997465
0.993704
0.999766
0.999414
0.999537
0.999003
0.241036
0.57316
0.215854
0.694851
0.878502
0.9599
0.862323
0.949851
0.968435
0.981946
0.955267
0.900441
0.890348
0.575864
0.184769
0.230361
0.0501359
0.289449
0.33953
0.189215
0.254603
0.469862
0.418907
0.23978
0.136571
0.0764216
0.979827
0.0874403
0.0567029
0.245783
0.628741
0.96394
0.983022
0.969405
0.994737
0.146874
0.0618254
0.170735
0.757128
0.910831
0.960652
0.930898
0.999035
0.316575
0.238925
0.22648
0.998029
0.999823
0.984164
0.408076
0.665272
0.650237
0.99603
0.966731
0.876006
0.92259
0.970455
0.97796
0.871305
0.996491
0.983347
0.842072
0.990225
0.947455
0.966981
0.908043
0.884315
0.994559
0.999707
0.69154
0.780952
0.698343
0.301568
0.991774
0.962194
0.79425
0.915213
0.923712
0.984831
0.967998
0.971414
0.895969
0.929101
0.955586
0.714721
0.908135
0.74068
0.652059
0.482488
0.269939
0.763808
0.930534
0.899406
0.702993
0.22879
1
0.940752
0.983878
0.993852
0.992741
0.973062
0.998558
0.977087
0.998333
0.994611
0.985155
0.305261
0.319558
0.995205
0.998582
0.998458
0.734827
0.681998
0.8845
0.902949
0.999996
0.999986
0.964615
0.999967
0.999704
0.999997
1
1
0.999884
0.610637
0.727748
0.853241
0.0867071
0.989798
0.991433
0.606318
0.247047
0.619271
0.661137
0.852665
0.963261
0.847882
0.920775
0.273027
0.497993
0.06162
0.999866
0.728359
0.927728
0.989002
0.398527
0.997527
0.999188
0.905909
0.829462
0.960135
0.979556
0.501516
0.56956
0.994956
0.330928
0.594235
0.83855
0.726598
0.493773
0.238857
0.586071
0.594997
0.1964
0.645559
1
1
0.230454
0.230413
0.210609
0.224908
0.0783852
0.69436
1
1
0.897336
0.983387
0.974075
0.948961
0.196369
0.791546
0.908318
0.603348
0.651175
0.622023
0.86816
0.393851
0.783219
0.978548
0.617067
0.582967
0.710827
0.117918
0.491777
0.414968
0.588333
0.900765
0.997338
0.991285
0.881593
0.833538
0.566487
0.821563
0.826796
0.865247
0.52863
0.139265
0.324821
0.996802
0.909052
0.98338
0.999674
0.999986
0.999029
0.690208
0.280561
0.700351
0.953945
0.920981
0.925286
0.982778
0.390716
0.209474
0.537888
0.588521
0.912282
0.933541
0.817794
0.754724
0.750876
0.275213
0.366964
1
1
1
1
0.846247
0.552798
0.393389
0.514319
0.815433
0.863042
0.246298
0.868425
0.959213
0.957078
0.985406
0.982776
0.99771
0.991763
0.998752
0.997651
0.999589
0.999939
0.999791
0.996853
0.999975
0.99977
0.89458
0.901736
0.816213
0.786495
0.980662
0.959809
0.266549
0.961591
0.866837
0.975839
0.647352
0.980188
0.856734
0.692015
0.420674
0.679632
0.265292
0.639701
0.340014
0.180479
0.565275
0.292358
0.621515
0.839704
0.726525
0.942869
0.872101
0.565436
0.402729
0.155859
0.765221
0.656973
0.755696
0.989022
0.985191
0.912137
0.77826
0.953584
0.852025
0.164615
0.149962
0.0572645
0.995535
0.628187
0.264758
0.0507872
0.516799
1
1
1
0.8419
0.8666
0.324991
0.651902
0.888046
0.646988
0.418332
0.906928
0.732526
0.791337
0.647043
0.417082
0.91404
0.640082
0.731209
0.88436
0.885655
0.676964
0.773746
0.796843
0.599525
0.825505
0.955198
0.998357
0.998703
0.998591
0.997102
0.97259
0.369781
0.809909
0.545068
0.885864
0.662431
0.321252
0.783368
0.903834
0.993004
0.284295
0.400448
1
0.235062
0.897476
0.19129
0.92012
0.966582
0.820832
1
1
0.877961
0.974215
0.706517
0.434897
0.734134
0.426559
0.200029
0.871825
0.750539
0.737219
0.928449
0.860179
0.630982
0.949365
0.857375
0.765745
0.982001
0.981455
0.443448
0.728048
0.744002
0.624115
0.217443
0.434276
0.676471
0.264059
0.688297
0.364557
0.999992
0.996089
1
0.537121
0.999116
0.997563
0.995922
0.981901
0.751793
0.500078
0.073534
0.56565
0.171398
0.208118
0.471906
0.829196
0.94374
0.940615
0.827001
0.592623
0.164543
0.217803
0.576843
0.844535
0.592663
0.935797
0.989062
0.971864
0.968059
0.990887
0.995922
0.975374
0.915668
0.95261
0.98833
0.999275
0.984597
0.998094
0.95936
0.999726
0.999948
0.999977
0.995594
0.999997
0.99996
0.997587
0.999682
0.992221
0.999853
0.998026
0.999785
0.999988
0.999966
0.999967
0.909657
0.914109
0.570661
0.762241
0.76139
0.776066
0.631868
0.794213
0.95325
0.934081
0.984452
0.826549
0.341463
0.999293
0.752829
0.556568
0.951917
0.983251
0.976168
0.590542
0.908604
0.81007
0.157419
0.164303
0.135095
0.498067
0.999891
1
0.761179
0.9994
0.998856
0.951191
0.976039
0.13796
0.706078
0.775143
0.682709
0.545761
0.236989
0.630844
0.231539
0.998012
0.890169
0.916788
0.883194
0.753829
0.769966
0.444775
0.985732
0.851148
0.998247
0.60559
0.888394
0.962423
0.338947
0.760399
0.522528
0.732924
0.223531
0.365495
0.616896
0.375365
0.380948
0.354791
0.437772
0.703503
0.913135
0.819378
0.999026
0.734473
0.503592
0.227271
0.43518
0.809
0.999908
0.999833
0.869678
0.817825
0.807807
0.995697
0.999251
0.999272
0.989437
0.723443
0.525659
0.199659
0.999573
0.998354
0.995694
0.994462
0.512085
0.942814
0.909604
0.900749
0.900891
0.185313
0.215199
0.430234
0.882239
0.69415
0.431026
0.216139
0.23683
0.660939
0.181277
0.20742
0.503638
0.571457
0.199557
0.809019
0.68965
0.957706
0.888247
0.618934
0.114729
0.370999
0.2047
0.225632
0.141211
0.778189
0.897841
0.94813
0.986498
0.89338
0.999271
0.988803
0.997092
0.959022
0.624111
0.116808
0.0566225
0.154326
0.323814
0.52063
0.260728
0.447254
0.730998
0.580132
0.614508
0.711548
0.329401
0.608644
0.238737
0.721325
0.874814
0.434309
0.999126
0.825989
0.637396
0.687584
0.931637
0.377628
0.156036
0.156775
0.469593
0.978364
0.980927
0.938166
0.99765
0.999833
0.999939
1
0.991351
0.986511
0.995285
0.998547
0.984505
0.990356
0.996631
0.719136
1
0.842494
1
0.999977
0.405293
0.88467
0.982216
0.0446807
0.216069
0.0913409
0.87024
0.228234
0.434843
0.822391
0.633172
0.731561
0.934096
0.895768
0.253515
0.630507
0.23488
0.643114
0.863652
0.268147
1
0.866424
0.999062
0.999953
0.666811
0.254789
0.78376
0.452783
0.873401
0.409078
0.77053
1
1
0.758787
0.963677
0.954551
0.172801
0.530982
0.995297
0.999163
1
0.999997
0.999998
0.916298
0.666717
0.983308
0.980804
0.916921
0.980333
0.997006
0.994427
0.994136
0.0848286
0.638054
0.138324
0.0656925
0.529155
0.631186
0.316613
0.883551
0.723998
0.895441
0.686628
0.665027
0.0772019
0.217246
0.513201
0.368786
0.606155
0.634356
0.788606
0.418609
0.762323
0.330249
0.757115
0.182843
0.564734
0.663225
0.254192
0.616553
0.645549
0.232957
0.484098
0.648358
0.703821
0.527028
0.815959
0.923129
0.387981
0.146311
0.986162
0.998441
0.0434284
0.935899
0.985756
0.983713
0.945896
0.195314
0.426519
0.352605
0.927978
0.969735
0.941831
0.94116
0.76761
0.883597
0.86132
0.634065
0.862676
0.637199
0.99825
0.398963
0.329357
0.727506
0.597055
0.713591
0.860968
0.999978
0.999911
0.824442
0.426836
0.999958
0.973097
0.19748
0.478518
0.181884
0.440744
0.577973
0.966767
0.905577
0.934112
0.806032
0.28069
0.640192
0.626141
0.721321
0.858322
0.379385
0.99407
0.19779
0.13406
0.579772
0.159421
0.999522
0.997513
0.945902
0.979044
0.993742
0.446801
0.141323
0.485634
0.999812
0.999521
0.999599
0.993184
0.998407
0.998194
0.0739064
0.200154
0.483687
0.746929
0.744185
0.556646
0.704259
0.424458
0.206738
0.627234
0.265044
0.904577
0.900066
0.986363
0.992909
0.971007
0.993463
0.97503
0.330177
0.97394
0.340458
0.889165
0.964556
0.968267
0.925134
0.26464
0.246691
0.674112
0.621027
0.253864
0.611266
0.61842
0.728108
0.613934
0.197463
0.722822
0.290127
0.818314
0.760123
0.839866
0.242554
0.999278
0.99984
0.999853
0.999743
0.882285
0.955292
0.981097
0.939426
0.747027
0.858721
0.738831
0.813705
0.938038
0.993565
0.979346
0.735671
0.889442
0.924135
0.993803
0.999393
0.911675
0.977926
0.933573
0.960663
0.0795028
0.492526
0.992784
0.939187
0.948942
0.999654
0.995836
0.933689
0.928457
0.801508
0.791335
0.923697
0.902156
0.981144
0.994542
0.978128
0.963961
0.861789
0.961682
0.99954
0.994352
0.997113
0.989238
0.996384
0.975379
0.942917
0.954042
0.903868
0.516353
0.729723
0.762443
0.688395
0.251805
0.656918
0.999925
0.999892
0.985702
0.988846
0.956694
0.996385
0.980467
0.989314
0.827644
0.774475
0.0820399
0.0729306
0.972275
0.952293
0.948174
0.369556
0.235114
0.588545
0.573436
0.999778
0.999876
0.999865
0.995929
0.977174
0.982063
0.992938
0.998497
0.991893
0.998642
0.993582
0.943261
0.980364
0.531551
0.7297
0.931615
0.999819
0.848725
0.864075
0.985096
0.139477
0.0464343
0.146789
0.885834
0.981314
0.943237
0.981233
0.942035
0.978608
0.363957
0.467289
0.973512
0.949745
0.999974
0.999946
0.526592
1
0.0951593
0.97807
0.992226
0.86126
0.986749
0.995593
0.999124
0.995516
0.904481
0.600168
0.818286
0.724896
0.583767
0.718789
0.319445
1
0.999997
1
0.999995
1
0.999998
0.994881
0.997863
0.997152
0.997291
0.999999
0.504264
0.453513
0.267102
0.129354
0.550263
0.996228
0.999816
0.998682
0.999993
1
0.999999
0.999991
0.99936
0.998597
0.999996
0.999957
0.999933
0.976534
0.236256
0.707734
0.878712
0.892413
0.657907
0.675065
0.980415
0.999997
0.999895
0.992019
0.999471
0.999813
0.848789
0.956222
0.999222
0.999998
0.999972
0.999999
0.990209
0.225979
0.513688
0.646893
0.729932
0.312325
0.714921
0.864701
0.432182
0.819229
0.643306
0.388985
0.701351
0.940286
0.930117
0.973816
0.992491
0.993736
0.997603
0.863297
0.853217
0.884131
0.693066
0.466871
0.258122
0.0476403
0.114596
0.99605
0.983984
0.999078
0.994172
0.955172
0.815166
0.998791
0.988699
0.993251
0.780165
0.737783
0.886776
0.999394
0.999918
0.999983
0.999989
0.65976
0.999383
0.998261
0.251448
0.154571
0.0611442
0.0447998
0.131779
0.145398
0.966829
0.281048
0.861422
0.68834
0.78996
0.302176
0.674244
0.221885
0.596054
0.506314
0.062232
0.232833
0.150357
0.0503051
0.163971
0.999996
0.956546
0.980536
0.993431
0.997841
0.997686
0.505397
0.405523
0.245224
0.422049
0.339807
0.733416
0.824705
0.102814
0.0508186
0.149166
0.059703
0.150652
0.341494
0.419331
0.226397
0.51519
0.0519956
0.24739
0.320057
0.0725913
0.139643
0.529206
0.79104
0.683598
0.323297
0.951116
0.0888164
0.880438
0.764634
0.672559
0.821315
0.115013
0.845148
0.99555
0.972072
0.905777
0.986634
0.952868
0.326318
0.845568
0.276084
0.0894164
0.183694
0.783178
0.520545
0.763253
0.385089
0.995787
0.990227
0.993762
0.997817
0.990315
0.993805
0.989827
0.994375
0.986133
0.861463
0.784572
0.647133
0.882755
0.859391
0.958464
0.961055
0.866354
0.914717
0.95132
0.348543
0.5883
0.661121
0.793273
0.69789
0.865247
0.0658051
0.485735
0.24767
0.652135
0.210427
0.196123
0.202347
0.580006
0.217057
0.381846
0.196582
0.537774
0.0576382
0.146259
0.413959
0.168083
0.894063
0.974548
0.840987
0.902169
0.343798
0.910766
0.956967
0.913793
0.910743
0.9712
0.797373
0.712043
0.530372
0.717105
0.838467
0.48553
0.761043
0.76654
0.734342
0.485352
0.390328
0.94864
0.98612
0.922405
0.976423
0.276244
0.964887
0.957226
0.230299
0.24976
0.17842
0.425056
0.221245
0.387999
0.241888
0.633138
0.638921
0.238351
0.928803
0.863841
0.958892
0.863724
0.25612
0.450472
0.722408
0.648808
0.659268
0.455793
0.838747
0.746122
0.75247
0.673507
0.264111
0.272577
0.684276
0.595114
0.693434
0.839977
0.0430232
0.920775
0.945656
0.896136
0.854932
0.895872
0.874259
0.990465
0.972269
0.992704
0.99742
0.998615
0.997806
0.999526
0.998957
0.75375
0.86681
0.153824
0.13817
0.121259
0.176439
0.665135
0.922926
0.981715
0.998677
0.994778
0.393169