/*--------------------------------*- C++ -*----------------------------------*\
  =========                 |
  \\      /  F ield         | OpenFOAM: The Open Source CFD Toolbox
   \\    /   O peration     | Website:  https://openfoam.org
    \\  /    A nd           | Version:  7
     \\/     M anipulation  |
\*---------------------------------------------------------------------------*/
FoamFile
{
    version     2.0;
    format      ascii;
    class       volVectorField;
    location    "0";
    object      U;
}
// * * * * * * * * * * * * * * * * * * * * * * * * * * * * * * * * * * * * * //

dimensions      [0 1 -1 0 0 0 0];

internalField   nonuniform List<vector> 
23195
(
(0.0897135 0.00744792 -1.26494)
(0.361937 0.213985 -1.19766)
(0.343365 0.178202 -1.16312)
(0.505424 0.234712 -1.20562)
(0.475979 0.320415 -1.15843)
(0.520193 0.328276 -1.17034)
(0.529663 0.327567 -1.05757)
(0.482735 0.323335 -1.21753)
(0.321484 0.207364 -1.27222)
(0.381995 0.180088 -1.23608)
(0.407581 0.261893 -1.32985)
(0.153557 0.0927751 -1.24815)
(0.111911 0.16032 -1.32196)
(0.271445 0.0457254 0.0505975)
(0.0236635 -0.00591764 -1.2257)
(-0.0310135 -0.0223991 -1.37521)
(0.258773 -0.00940737 0.146039)
(0.179285 0.0181606 0.141751)
(0.720616 0.0728404 0.175791)
(0.271795 0.0558907 0.164129)
(0.169581 0.0446709 0.132336)
(0.135286 0.0383912 0.110259)
(0.322689 0.371739 0.182442)
(0.242312 0.101048 0.138573)
(0.16623 0.0735162 0.122684)
(-0.0936667 -0.17594 -1.2147)
(-0.0816126 -0.123722 -1.31068)
(0.208251 -0.0294906 0.194306)
(0.130615 0.0033444 0.163883)
(0.104855 0.00081008 0.122252)
(0.289837 0.0526504 0.391217)
(0.199864 0.0481165 0.216652)
(0.131322 0.0338187 0.160649)
(0.0849544 0.0246641 0.1193)
(0.0656694 0.0234786 0.102114)
(0.242358 0.080805 0.25106)
(0.16694 0.0771827 0.210994)
(0.112723 0.0564278 0.148751)
(0.0720394 0.0360909 0.110349)
(0.0553303 0.0227628 0.086748)
(0.216543 0.00487519 0.190124)
(0.100284 0.0793264 0.136351)
(0.0604961 0.0488254 0.0927294)
(-0.161528 -0.139346 -1.17901)
(-0.181204 -0.208586 -1.19032)
(-0.157102 -0.226843 -1.26411)
(0.0734999 0.0125965 0.183056)
(0.0508 0.013402 0.134784)
(0.126175 0.0471942 0.2659)
(0.0483901 0.0267534 0.17693)
(0.0398728 0.022197 0.13541)
(0.0289829 0.018842 0.10328)
(0.0784271 0.0662674 0.244569)
(0.0353926 0.0287239 0.161819)
(0.0314443 0.0247623 0.127701)
(0.0191528 0.0179615 0.0966678)
(0.0474471 0.0767377 0.209826)
(0.0377844 0.0356204 0.149043)
(0.0239609 0.0226505 0.113016)
(0.0196359 0.0185476 0.0910125)
(-0.217689 -0.257235 -1.19242)
(-0.222978 -0.224969 -1.16677)
(0.0220152 0.03459 0.208875)
(0.00717226 0.0277974 0.153284)
(0.0164562 0.0276206 0.275911)
(-0.0101122 0.0171083 0.195973)
(-0.00673702 0.0199213 0.154005)
(-0.00549786 0.0191997 0.11789)
(0.00859761 0.0226453 0.247244)
(-0.012344 0.0067354 0.177192)
(-0.00902675 0.0112968 0.144368)
(-0.0100546 0.00970548 0.108843)
(0.0117099 0.0203669 0.210448)
(-0.00138596 0.00598198 0.162711)
(-0.00793289 0.00434657 0.12777)
(-0.00777339 0.0054707 0.102614)
(-0.150515 -0.18202 -1.106)
(-0.203159 -0.21361 -1.10494)
(-0.0369545 0.0488863 0.247055)
(-0.0307951 0.0456295 0.198012)
(-0.0535419 0.0188711 0.323892)
(-0.0757839 0.00279316 0.21635)
(-0.0572666 0.0149341 0.168146)
(-0.0415613 0.0140338 0.137222)
(-0.0330483 -0.0166331 0.273616)
(-0.0639259 -0.018891 0.192378)
(-0.0539528 -0.00461994 0.156504)
(-0.0418288 0.00132781 0.121851)
(-0.0254202 -0.0372424 0.221732)
(-0.0395921 -0.0278277 0.178837)
(-0.0427229 -0.0167752 0.136689)
(-0.037358 -0.0063539 0.115534)
(-0.191091 -0.242026 -0.935429)
(-0.19294 -0.43484 -0.999813)
(-0.198113 -0.0574788 0.383117)
(-0.153953 -0.00788834 0.249523)
(-0.116721 0.0153912 0.181028)
(-0.132068 -0.0869423 0.293083)
(-0.120636 -0.0459146 0.215552)
(-0.0998021 -0.020667 0.165713)
(-0.0881527 -0.0843953 0.264076)
(-0.0880526 -0.0586579 0.201787)
(-0.0825123 -0.039007 0.153503)
(-0.139261 -0.359429 -0.705335)
(-0.140993 -0.468271 -0.851496)
(0.0699666 -0.299075 -0.888703)
(-0.334185 -0.393985 0.425837)
(-0.334637 -0.204594 0.360395)
(-0.259068 -0.0505276 0.267965)
(-0.254209 -0.35193 0.358844)
(-0.203335 -0.162237 0.245533)
(-0.167376 -0.0760953 0.220463)
(-0.164229 -0.0400855 0.194826)
(-0.191933 -0.133975 0.268031)
(-0.133456 -0.0857896 0.22157)
(-0.188149 -0.673927 -0.570777)
(-0.085775 -0.765224 -0.667277)
(-0.343814 -1.15471 -0.35815)
(-0.447355 -1.19973 -0.0944564)
(-0.254277 -0.921295 0.133966)
(-0.41664 -0.736244 0.270527)
(-0.325224 -0.476629 0.262002)
(-0.408704 -0.361413 0.31717)
(-0.352654 -0.318557 0.176536)
(-0.120139 -0.0653351 0.141882)
(-0.353095 -0.734365 -0.246287)
(-0.228071 -0.802667 -0.0317181)
(-0.210195 -0.481595 0.00991475)
(-0.00838469 -0.00891701 0.00513025)
(-0.00786985 -0.0152084 -0.00452155)
(-0.000149208 -0.000131806 -8.03756e-05)
(0.403053 0.311008 -1.29731)
(0.340651 0.23577 -1.30236)
(0.343813 0.171044 -1.26223)
(0.0885013 0.0252784 -1.3386)
(0.0141218 0.0176026 -1.00098)
(0.327397 0.22852 -1.26453)
(0.300482 0.169447 -1.21258)
(0.297947 0.125541 -1.04577)
(0.349681 0.142617 -1.23402)
(-0.020766 -0.0192347 -0.967582)
(0.286647 0.176703 -1.19381)
(0.299419 0.132645 -1.06685)
(0.283556 0.170691 -1.21523)
(0.496176 0.209028 -1.24253)
(0.246479 0.455365 -1.10104)
(0.465285 0.221239 -1.21804)
(0.343122 0.185398 -1.17972)
(0.301973 0.117603 -1.10305)
(0.472178 0.219308 -1.21098)
(0.45153 0.274847 -1.13489)
(0.585269 0.249404 -1.23603)
(0.533516 0.345017 -1.17225)
(0.484176 0.327586 -1.1708)
(0.579855 0.227164 -1.21022)
(0.346502 0.328482 -1.0026)
(0.677865 0.233454 -1.0608)
(0.470747 0.317315 -1.21824)
(0.391799 0.237134 -1.2998)
(0.415422 0.292338 -1.30908)
(0.0900668 0.0735918 -1.20269)
(0.0902118 0.0524364 -1.18494)
(0.192468 0.354751 -1.54617)
(0.116026 -0.00119356 -1.38616)
(0.228983 -0.0263516 0.121271)
(0.951818 -0.108574 0.108696)
(0.313924 0.0272453 0.0267691)
(0.263956 -0.0496362 0.115769)
(0.749683 -0.0582633 0.10581)
(0.376226 0.00948313 0.122657)
(0.947496 0.0572944 0.14133)
(0.634356 0.610975 0.250217)
(0.301112 0.055589 0.0106647)
(0.757147 0.0486047 0.131994)
(0.382865 0.0530079 0.127044)
(0.547968 0.468841 0.213227)
(0.312564 0.144483 0.136841)
(0.292756 0.0568281 0.118836)
(0.203847 0.0465158 0.11604)
(0.274602 0.115439 0.138415)
(0.194864 0.0863963 0.119734)
(0.444563 0.520568 0.192155)
(0.267888 0.152057 0.116288)
(0.243311 0.110916 0.132154)
(0.195946 0.108304 0.111407)
(-0.00287871 0.00904811 -1.19083)
(-0.110008 -0.0535075 -1.09099)
(0.0117839 -0.0240673 -1.20024)
(0.0325843 0.00746785 -1.32852)
(-0.0619171 -0.060045 -1.18758)
(-0.0875692 -0.150087 -1.28127)
(0.917873 -0.0713129 0.238055)
(0.422347 0.0171162 0.725935)
(0.275292 -0.0448993 0.144938)
(0.724065 -0.0426017 0.191534)
(0.369252 0.0163874 0.174223)
(0.0422941 -0.0993793 0.234139)
(0.493342 0.0239577 0.586165)
(0.255829 0.0263676 0.234267)
(0.150446 0.0371705 0.125668)
(0.117676 0.00091837 0.126056)
(0.109834 0.0179499 0.113447)
(0.0970858 0.0186977 0.111527)
(0.912674 0.0878174 0.264019)
(0.602383 0.620965 0.295266)
(0.402422 0.101929 0.729171)
(0.157087 -0.0239186 0.455929)
(0.371833 0.0588043 0.182587)
(0.506061 0.391218 0.247006)
(0.302313 0.131199 0.161688)
(0.435646 0.0557678 0.53425)
(0.249175 0.0383616 0.233279)
(0.217572 0.0636899 0.341554)
(0.26931 0.0938167 0.234119)
(0.139475 0.0722631 0.102794)
(0.135583 0.0643716 0.131416)
(0.101041 0.0501877 0.11213)
(0.122757 0.0800424 0.129682)
(0.087015 0.0568757 0.106482)
(0.209068 -0.0300785 0.172675)
(0.214228 0.0127805 0.169651)
(0.118219 0.0923386 0.135399)
(0.108635 0.0844344 0.130677)
(0.0804332 0.0611265 0.0979974)
(-0.0926221 -0.131427 -1.38526)
(-0.191189 -0.262965 -1.19546)
(0.14271 -0.0124657 0.175719)
(0.0974702 -0.00219603 0.177117)
(0.0764798 0.00644989 0.139164)
(0.280091 -0.012579 0.616468)
(0.111124 -0.00705127 0.112432)
(0.194463 -0.0642874 0.161049)
(0.270369 -0.027271 0.430219)
(0.236388 0.0351321 0.22854)
(0.169945 0.0364014 0.105324)
(0.233546 0.0596748 0.263448)
(0.209788 0.053141 0.552337)
(0.0832402 0.041484 0.279062)
(0.161871 0.00724132 0.13718)
(0.224689 -0.0538899 0.231422)
(-0.2125 -0.20749 -1.21209)
(-0.198354 -0.231471 -1.19307)
(0.0917568 -0.0081554 0.0767638)
(-0.218046 -0.219005 -1.17527)
(-0.194227 -0.2052 -1.12599)
(-0.0395378 -0.0030999 0.115688)
(-0.0670448 -0.000850137 0.126961)
(-0.0356828 -0.0353956 0.198655)
(-0.0706008 -0.076228 0.27043)
(-0.0788676 -0.0491772 0.211961)
(-0.189952 -0.204535 -0.93133)
(-0.149588 -0.241858 -0.726961)
(-0.244069 -0.401598 -0.99977)
(-0.161805 -0.306937 -0.791247)
(-0.163444 -0.343793 -0.697062)
(-0.157742 -0.376033 -0.843174)
(-0.175451 -0.358434 -0.745852)
(-0.142882 -0.268734 -0.671235)
(-0.141958 -0.420203 -0.860145)
(-0.116234 -0.370304 -0.804909)
(-0.107279 -0.0101042 0.173537)
(-0.0977726 -0.00406221 0.139832)
(-0.179167 -0.0103317 0.210038)
(-0.155552 -0.0255148 0.188808)
(-0.150201 -0.300574 -0.657461)
(-0.0499629 -0.298098 -0.652051)
(-0.0434949 -0.665144 -0.691795)
(-0.530774 -1.36727 -0.0388608)
(-0.48195 -0.940857 0.312165)
(-0.424269 -0.448818 0.478652)
(-0.416733 -0.305627 0.494527)
(-0.472276 -0.830971 0.340762)
(-0.574969 -0.729238 0.493645)
(-0.409628 -0.569097 0.380044)
(-0.463779 -0.437263 0.378532)
(-0.166673 -0.046848 0.209099)
(-0.144125 -0.0852544 0.221306)
(-0.171467 -0.0926743 0.207919)
(-0.155542 -0.0799434 0.183932)
(-0.30192 -0.540024 0.284677)
(-0.367329 -0.392351 0.297729)
(-0.264477 -0.344792 0.284267)
(-0.365558 -0.340408 0.329796)
(-0.472975 -0.189415 0.209912)
(-0.387181 -0.345702 0.21324)
(-0.198335 -0.127814 0.0926456)
(-0.0194014 -0.0155909 -0.00728334)
(-0.150924 -0.0998299 0.110548)
(-0.0243803 -0.0203957 0.00172544)
(-0.358897 -0.734625 -0.225863)
(-0.257551 -0.771411 -0.10692)
(-0.252091 -0.792674 -0.0604981)
(-0.244523 -0.653081 -0.142638)
(-0.00687526 -0.0130556 -0.0221205)
(-0.249556 -0.643998 -0.115482)
(-0.0108985 -0.0130056 -0.0143827)
(-0.207483 -0.515353 -0.0816534)
(-0.00817488 -0.018985 -0.0123842)
(-0.0103163 -0.0187593 -0.00615935)
(-0.00016611 -7.64323e-05 -0.000195177)
(0.352288 0.355797 -1.31139)
(0.142878 0.133243 -1.31394)
(0.123481 0.104023 -1.55515)
(0.185065 0.23465 -1.34305)
(0.0428368 0.0756165 -1.38287)
(0.160103 0.192335 -1.30983)
(0.192027 0.161987 -1.42382)
(0.149275 0.161121 -1.00126)
(0.0959721 0.123154 -0.980305)
(0.0393311 0.0268755 -1.13875)
(0.149366 0.0809527 -1.22139)
(0.118891 0.0740496 -1.13043)
(0.154016 0.21051 -1.1452)
(0.128851 0.0527313 -0.875734)
(0.411849 0.197302 -1.2398)
(0.366655 0.189577 -1.21893)
(0.503867 0.233339 -1.24114)
(0.451686 0.276758 -1.19068)
(0.56539 0.366393 -1.10582)
(0.488168 0.287565 -1.13311)
(0.462836 0.369051 -1.1715)
(0.525447 0.340712 -1.17053)
(0.624863 0.337957 -1.14445)
(0.48317 0.31681 -1.19616)
(0.451659 0.306607 -1.20061)
(0.363912 0.196923 -1.24446)
(0.355194 0.24188 -1.21311)
(0.3993 0.27139 -1.28855)
(0.389492 0.277178 -1.27447)
(0.240086 0.123283 -1.20514)
(0.394015 0.257477 -1.34829)
(0.259374 0.159478 -1.46688)
(0.289099 0.0558744 0.0189371)
(0.245758 0.0842709 -0.0111272)
(0.163384 0.0588606 -1.22319)
(0.136938 0.0959516 -1.20673)
(0.038933 0.0392076 -1.16101)
(0.0631095 -0.0211966 -1.33776)
(0.194743 0.104206 -1.32684)
(0.159337 0.126683 -1.31064)
(0.23131 0.157536 -1.44078)
(0.0481299 0.0386082 -1.2411)
(0.0721967 0.043037 -1.27054)
(0.0589079 0.0174193 -1.3518)
(0.0617012 0.0395126 -1.46008)
(0.385582 -0.18924 0.0124166)
(0.359717 -0.0965616 -0.0247887)
(0.604089 -0.233283 -0.0642752)
(0.627754 0.102766 0.0374887)
(0.459715 0.044915 -0.174908)
(0.731377 -0.108754 0.064189)
(0.628048 -0.0279492 -0.0554685)
(0.751661 0.120877 0.174656)
(0.475701 0.651395 0.242958)
(0.179139 0.0769691 0.11782)
(0.109933 -0.0366046 -1.34855)
(0.0217867 -0.02751 -1.34457)
(-0.0179467 -0.0773804 -1.44552)
(-0.06842 -0.0980814 -1.20813)
(-0.125216 -0.129095 -1.25886)
(-0.0712244 -0.124897 -1.30043)
(-0.133206 -0.18044 -1.31369)
(-0.0865753 -0.152813 -1.31177)
(0.240685 -0.0224154 0.133644)
(0.157293 -0.00764697 0.174941)
(0.511517 -0.14795 0.219962)
(0.270966 -0.307554 0.112262)
(0.694682 -0.133158 0.182495)
(0.520693 -0.192071 0.141434)
(0.642828 -0.144291 0.317955)
(0.191028 0.00997391 0.139206)
(0.280774 0.0231381 0.164396)
(0.211266 0.0279152 0.146284)
(0.206805 -0.0242952 0.22144)
(0.171905 0.000265454 0.176193)
(0.233038 0.0234332 0.198484)
(0.191589 0.0245393 0.171785)
(0.176223 0.0367359 0.13327)
(0.147732 0.0350529 0.120543)
(0.156687 -8.20461e-05 0.165127)
(0.124553 0.000106234 0.133082)
(0.155791 0.0237031 0.150567)
(0.128715 0.0200016 0.133728)
(0.50034 -0.248523 0.113322)
(0.607057 0.0423938 0.133026)
(0.685303 0.212243 0.236398)
(0.570853 0.0577909 0.191809)
(0.5763 0.144415 0.0883872)
(0.771042 0.236469 0.348515)
(0.674707 0.281846 0.366591)
(0.212089 0.0489785 0.143667)
(0.248427 0.0822391 0.158549)
(0.201446 0.0692167 0.139293)
(0.225451 0.0494707 0.19703)
(0.188379 0.0437354 0.168092)
(0.221595 0.0726241 0.190788)
(0.180789 0.0609865 0.162829)
(0.1536 0.0548412 0.107051)
(0.102457 0.0271904 0.108672)
(0.0856402 0.0196296 0.0961132)
(0.0990919 0.0393917 0.106131)
(0.0721443 0.0311465 0.0961294)
(0.296877 0.69444 0.229891)
(0.226469 0.0963155 0.392686)
(0.270257 0.136742 0.145676)
(0.247629 0.126495 0.280051)
(0.236841 0.114388 0.205409)
(0.143089 0.0431626 0.150198)
(0.184419 0.0774769 0.128922)
(0.201837 0.0844279 0.182325)
(0.166596 0.072791 0.155572)
(0.18133 0.0574202 0.17276)
(0.144301 0.0828532 0.14895)
(-0.0230833 -0.210556 -1.13478)
(-0.1802 -0.121347 -1.23288)
(-0.0931077 -0.147579 -1.2813)
(-0.140394 -0.159111 -1.30051)
(-0.132533 -0.16285 -1.20956)
(-0.164786 -0.21427 -1.22882)
(-0.171786 -0.189304 -1.22339)
(-0.190179 -0.221458 -1.26999)
(-0.0278297 -0.117582 -1.209)
(-0.153327 -0.176453 -1.33665)
(0.156588 -0.0164024 0.184138)
(0.110193 -0.0111049 0.192184)
(0.0725233 0.00711503 0.129959)
(0.157531 -0.00432109 0.181457)
(0.20125 0.0249988 0.213065)
(0.166412 0.0215274 0.188692)
(0.119404 -0.00450715 0.198223)
(0.185817 0.0332709 0.232575)
(0.141954 0.0211276 0.206803)
(0.112481 -0.000500869 0.133205)
(0.133744 0.0187058 0.163658)
(0.109118 0.0176251 0.14186)
(0.104592 0.00555341 0.173701)
(0.084889 0.00761453 0.14538)
(0.108249 0.0178998 0.175742)
(0.0849832 0.0184356 0.150458)
(0.0879885 0.0155568 0.118147)
(0.071161 0.0174847 0.100218)
(0.0676001 0.00837053 0.129768)
(0.0657273 0.0174451 0.127488)
(0.0470905 0.0165509 0.105471)
(0.237302 0.0586703 0.238163)
(0.193663 0.100719 0.266662)
(0.220814 0.0837274 0.248666)
(0.194742 0.0460491 0.102496)
(0.217422 0.0659348 0.267623)
(0.17413 0.0923562 0.286298)
(0.150882 0.0675632 0.301001)
(0.19765 0.0885658 0.22475)
(0.17875 0.00276974 0.188774)
(0.143165 0.0960278 0.287656)
(0.0849831 0.123831 0.266264)
(0.11299 0.0864579 0.149801)
(0.0625899 0.110019 0.219919)
(0.0647412 0.0659118 0.167546)
(0.0706795 0.0539344 0.102601)
(0.0593281 0.0521193 0.151059)
(0.0436418 0.037903 0.120042)
(-0.276439 -0.252627 -1.22695)
(-0.184605 -0.207861 -1.21586)
(-0.205206 -0.220262 -1.2368)
(-0.203197 -0.217904 -1.17936)
(-0.199714 -0.22394 -1.18834)
(-0.20689 -0.212653 -1.22987)
(-0.193786 -0.181418 -1.14177)
(-0.220608 -0.22744 -1.16941)
(0.134172 -0.00558204 0.0367495)
(0.236085 0.0615944 0.315058)
(0.048123 0.0239813 0.321548)
(-0.198035 -0.212671 -1.1252)
(-0.00836868 0.00605213 0.105515)
(-0.0300444 0.00462028 0.119115)
(-0.0313973 -0.00308506 0.112607)
(0.000996301 0.0108384 0.180803)
(4.49407e-05 0.00971534 0.153274)
(-0.0210581 -0.0175403 0.215396)
(-0.0179821 -0.0108039 0.188638)
(-0.0453066 -0.0240171 0.15908)
(-0.192084 -0.199971 -1.10429)
(-0.191675 -0.200666 -0.984785)
(-0.197242 -0.230616 -0.99362)
(-0.265803 -0.354859 -1.06384)
(-0.0579014 -0.0173249 0.243164)
(-0.0281335 -0.0344167 0.241976)
(-0.0493426 -0.0271905 0.22252)
(-0.1086 -0.055226 0.301942)
(-0.0771298 -0.0403869 0.255906)
(-0.0794392 -0.0755523 0.273057)
(-0.0708313 -0.0488587 0.234776)
(-0.0480269 -0.00178838 0.134272)
(-0.0523441 -0.0115676 0.147808)
(-0.0448111 -0.00687922 0.125716)
(-0.0699366 -0.0118633 0.161485)
(-0.0674627 -0.00622315 0.134464)
(-0.0656395 -0.0190338 0.148718)
(-0.0718422 -0.0137334 0.129568)
(-0.0238553 -0.0425382 0.234262)
(-0.0259716 -0.059533 0.215789)
(-0.0299731 -0.0361487 0.219353)
(-0.0248634 -0.0394903 0.205833)
(-0.0218682 -0.0655058 0.242887)
(-0.0278814 -0.0387771 0.202262)
(-0.0294162 -0.0509937 0.230971)
(-0.0302354 -0.0690153 0.207994)
(-0.162979 -0.203793 -0.937227)
(-0.13325 -0.243846 -0.73021)
(-0.132617 -0.454653 -0.860714)
(-0.196407 -0.465309 -0.948667)
(-0.164136 -0.433622 -0.850504)
(-0.196271 -0.408602 -0.837557)
(-0.223057 -0.0351191 0.516416)
(-0.379723 -0.218169 0.515737)
(-0.136119 0.00158545 0.221828)
(-0.137897 -0.0319113 0.237955)
(-0.125762 -0.0172166 0.214194)
(-0.205687 -0.0313354 0.260919)
(-0.17702 -0.00914643 0.223812)
(-0.175654 -0.0514823 0.242682)
(-0.156966 -0.028956 0.212676)
(-0.1141 -0.0314121 0.198467)
(-0.105632 -0.0559243 0.207126)
(-0.100362 -0.0405863 0.187986)
(-0.150426 -0.0630403 0.224806)
(-0.139869 -0.045042 0.19993)
(-0.13146 -0.0689293 0.211879)
(-0.127476 -0.0550596 0.187653)
(-0.0943598 -0.00973587 0.136261)
(-0.0907941 -0.0340235 0.153726)
(-0.146491 -0.0345533 0.186118)
(-0.133495 -0.0425742 0.174892)
(-0.164035 -0.298567 -0.68675)
(-0.128191 -0.321566 -0.713217)
(-0.133652 -0.440371 -0.795332)
(-0.162822 -0.540385 -0.644726)
(-0.16423 -0.340953 -0.684974)
(-0.135638 -0.437539 -0.760125)
(-0.066261 -0.394887 -0.747605)
(-0.131049 -0.571656 -0.752337)
(-0.138543 -0.529871 -0.667746)
(-0.073135 -0.619842 -0.668531)
(-0.0488514 -0.811516 -0.781871)
(-0.484687 -1.47011 -0.285554)
(-0.358115 -1.29312 -0.431621)
(-0.456627 -1.36822 -0.171046)
(-0.313931 -1.03963 0.275452)
(-0.431646 -0.961578 0.257925)
(-0.473074 -0.491412 0.584861)
(-0.418583 -0.845293 0.283732)
(-0.349194 -0.582776 0.333108)
(-0.528689 -0.601283 0.526285)
(-0.543201 -0.861368 0.408122)
(-0.591439 -0.485703 0.742526)
(-0.524489 -0.754251 0.481702)
(-0.471383 -0.698321 0.420574)
(-0.293804 -0.120179 0.300105)
(-0.259461 -0.186063 0.294294)
(-0.234955 -0.122048 0.250718)
(-0.38033 -0.277454 0.316892)
(-0.40599 -0.167123 0.228738)
(-0.304453 -0.244932 0.24586)
(-0.260947 -0.153354 0.181513)
(-0.235311 -0.0101855 0.23943)
(-0.204771 -0.0730887 0.232807)
(-0.177303 -0.0379324 0.21357)
(-0.374893 -0.123259 0.223987)
(-0.194607 -0.0868577 0.16859)
(-0.170863 -0.0313361 0.197569)
(-0.183474 -0.110657 0.224442)
(-0.147484 -0.137596 0.243271)
(-0.140882 -0.0879251 0.22671)
(-0.273707 -0.248696 0.174)
(-0.177158 -0.123258 0.169546)
(-0.104683 -0.0550602 0.202804)
(-0.147099 -0.779845 -0.610676)
(-0.293614 -1.03211 -0.442336)
(-0.346073 -1.17283 -0.349381)
(-0.196813 -0.730367 -0.211239)
(-0.263841 -0.812575 -0.161809)
(-0.400408 -1.1803 -0.136109)
(-0.257412 -0.906005 0.144935)
(-0.385378 -0.89714 0.1857)
(-0.263012 -0.765896 -0.19997)
(-0.272162 -0.839133 -0.0824393)
(-0.289999 -0.76515 -0.0176854)
(-0.429608 -0.887737 0.237248)
(-0.287814 -0.846067 -0.0646035)
(-0.30118 -0.760093 0.0035796)
(-0.34397 -0.746087 0.202309)
(-0.329124 -0.621655 0.266509)
(-0.267815 -0.643666 0.0298447)
(-0.380516 -0.513606 0.432519)
(-0.490565 -0.754427 0.400346)
(-0.380712 -0.59841 0.301506)
(-0.457514 -0.473069 0.337128)
(-0.287013 -0.635929 0.0871287)
(-0.470635 -0.591022 0.424918)
(-0.355107 -0.349483 0.211584)
(-0.0871473 -0.0942807 -0.00526599)
(-0.263037 -0.235852 0.0541847)
(-0.23832 -0.296279 0.0482098)
(-0.15623 -0.155706 0.0835236)
(-0.161942 -0.169999 -0.192027)
(-0.292113 -0.793744 -0.105829)
(-0.0113798 -0.00905305 0.000762587)
(-0.000290279 -0.000148702 -0.000252981)
(-0.00853021 -0.015401 -0.00934347)
(0.415283 0.288278 -1.36014)
(0.462176 0.194315 -1.17904)
(0.125422 0.321288 -1.43055)
(0.292416 0.20297 -1.40288)
(0.181853 0.0679005 -1.33448)
(0.241655 0.127919 -1.50173)
(0.109127 0.123463 -1.21013)
(0.0170112 0.100243 -1.27231)
(0.133805 0.193669 -1.23821)
(0.0991086 0.127638 -1.10003)
(0.207745 0.0679968 -0.838946)
(0.177708 0.115726 -0.97711)
(0.16036 0.0884795 -1.30081)
(0.113355 0.114011 -0.950287)
(0.0304526 0.0270749 -1.03487)
(0.113349 0.0636944 -0.930827)
(0.111386 0.0677168 -1.03703)
(0.128346 0.14757 -1.02121)
(0.0374435 0.12685 -0.920149)
(0.48647 0.127453 -1.27092)
(0.5547 0.288877 -1.1831)
(0.441282 0.028434 -1.26465)
(0.296539 0.158952 -1.21528)
(0.825604 0.331707 -1.07158)
(0.315313 0.166603 -1.10707)
(0.327724 0.268388 -1.11583)
(0.411613 0.219747 -1.08249)
(0.31334 0.190466 -1.12734)
(0.440855 0.133566 -1.1397)
(0.458268 0.0556824 -0.977945)
(0.546898 0.189725 -0.869537)
(0.566076 0.218708 -1.27269)
(0.56078 0.376243 -1.58392)
(0.0467292 -0.00412454 -1.26381)
(0.100541 0.0872645 -1.26903)
(0.0566911 -0.221793 -1.40621)
(-0.0281894 0.172019 -1.533)
(0.0364018 -0.0337066 -1.46394)
(0.0979012 0.0685979 -1.43292)
(0.710473 -0.451859 -0.188927)
(0.866371 -0.200327 -0.154279)
(0.73288 -0.396279 -0.241938)
(0.730121 -0.183991 0.106222)
(0.69302 -0.276182 -0.136592)
(0.946443 -0.14582 -0.0320734)
(0.888814 -0.220452 0.0753704)
(1.17746 -0.0927419 0.119333)
(0.803557 -0.299877 -0.11592)
(1.18648 -0.17042 -0.0260255)
(0.490166 -0.121965 -0.00873203)
(0.335561 -0.173415 -0.158987)
(0.443927 0.0441589 -0.120628)
(0.706912 -0.155921 -0.0632481)
(0.414725 -0.0712621 -0.020274)
(0.580636 -0.1924 -0.0964305)
(0.567517 -0.0585972 -0.0326005)
(0.443594 -0.242192 0.0445362)
(0.265997 -0.281135 0.106425)
(0.704289 -0.127006 0.107395)
(0.248793 -0.203199 0.0855491)
(0.64234 -0.242762 -0.0668758)
(0.511858 -0.233808 0.0701367)
(0.859485 -0.0610256 -0.053222)
(0.825425 0.0643311 0.00540274)
(0.856841 0.191262 0.169678)
(0.927457 0.449377 0.224264)
(0.864908 0.255189 0.151882)
(0.560167 0.134903 0.0777565)
(0.284721 0.0911537 0.0528105)
(0.54112 0.167975 0.0925361)
(0.685137 0.309781 0.198072)
(0.419596 0.274935 0.167949)
(0.710736 0.301547 0.161049)
(0.452064 0.255913 0.130353)
(0.582254 0.0757337 0.114327)
(0.449577 0.157524 0.0757196)
(0.232673 0.0754304 0.136909)
(0.341699 0.122336 0.138664)
(0.369913 0.194664 0.159196)
(0.356488 0.111565 0.0899153)
(0.406007 0.223047 0.109859)
(0.532574 0.155069 0.196178)
(0.257325 0.0819059 0.115038)
(0.262223 0.0181159 0.185797)
(0.293257 0.0897701 0.133977)
(0.240285 0.09982 0.126706)
(0.289652 0.0895251 0.103872)
(0.246404 0.111723 0.120276)
(0.252329 0.0863812 0.126693)
(0.132769 0.0625633 0.23228)
(0.322671 0.215346 0.132936)
(0.221961 0.121985 0.11252)
(0.232217 0.164295 0.0919638)
(0.211314 0.109481 0.101751)
(0.213216 0.0965848 0.117491)
(0.205195 0.0709763 0.119039)
(-0.0345534 -0.0791936 -1.21273)
(-0.0637979 -0.0695516 -1.15553)
(-0.0666754 -0.0807783 -1.23681)
(0.0425897 -0.017511 -1.23494)
(0.0117623 -0.0393881 -1.17419)
(-0.00677633 -0.0565122 -1.21947)
(-0.280878 -0.107942 -1.18818)
(-0.183419 -0.204439 -1.57308)
(0.711009 -0.18554 0.178063)
(0.660055 -0.188027 0.33841)
(0.678487 -0.132674 0.344454)
(0.777027 0.0178465 0.656365)
(0.362261 -0.300218 1.01582)
(0.798919 -0.0723577 0.513636)
(0.541266 -0.10857 0.188694)
(0.703833 -0.116874 0.188802)
(0.593026 -0.0308513 0.145525)
(0.632391 -0.0663021 0.293871)
(0.562898 -0.101151 0.153249)
(0.658346 -0.120991 0.31072)
(0.696946 0.0390685 0.0812519)
(0.412356 -0.154444 0.257491)
(-0.00522375 -0.289951 0.729532)
(0.416006 -0.12651 0.187815)
(0.64541 -0.120341 0.386454)
(0.311669 -0.059804 0.362547)
(0.466701 -0.0734364 0.154546)
(0.28803 -0.0174248 0.221846)
(0.226454 -0.0235956 0.217037)
(0.331678 -0.0339634 0.135589)
(0.290626 0.0062643 0.240352)
(0.288033 -0.0337969 0.245777)
(0.411379 -0.206365 0.0338766)
(0.42662 -0.0283898 0.47615)
(0.445978 -0.0734121 0.566628)
(0.346519 0.0616901 0.244156)
(0.592878 -0.0889528 0.486498)
(0.34554 -0.0290653 0.323031)
(0.551309 -0.00867365 0.243279)
(0.260006 0.0336232 0.241879)
(0.251151 0.00598476 0.237681)
(0.299496 0.0399465 0.212376)
(0.273362 0.0154463 0.241639)
(0.199538 0.0641695 0.41182)
(0.293728 -0.0216139 0.243013)
(0.125428 0.0157193 0.120429)
(0.11352 0.0210995 0.114736)
(0.110711 0.00972031 0.116006)
(0.0996048 0.0156094 0.108067)
(0.125748 0.0152212 0.120066)
(0.11166 0.0201756 0.109808)
(0.107292 0.00921483 0.116611)
(0.0946587 0.0133664 0.101203)
(0.11105 0.0246843 0.105199)
(0.102778 0.0110719 0.106773)
(0.877905 0.456225 0.326931)
(0.415041 0.463055 0.359134)
(0.747456 0.466992 0.413527)
(0.715692 0.113318 0.691689)
(-0.200393 0.230863 0.334419)
(0.452989 0.246686 0.707841)
(0.573409 0.176206 0.616409)
(0.383823 0.405451 0.376814)
(0.531265 0.281287 0.466663)
(0.449668 0.229686 0.287356)
(0.2805 0.0674222 0.275734)
(0.504356 0.0677845 0.204011)
(0.344066 0.0925456 0.184033)
(0.327424 0.0619518 0.226249)
(0.523128 0.176713 0.24851)
(0.585592 0.135773 0.441404)
(0.305935 0.0767824 0.21427)
(0.495345 0.00715699 0.334351)
(0.656967 0.3188 0.250705)
(0.405177 0.225428 0.16942)
(0.452992 0.343526 0.312703)
(0.621944 0.0717824 0.23206)
(0.610764 0.323498 0.322442)
(0.395288 0.209544 0.255293)
(0.36255 0.104243 0.232239)
(0.311955 0.11329 0.17144)
(0.362168 0.147081 0.188036)
(0.280068 0.116455 0.191467)
(0.504852 0.272793 0.252349)
(0.300707 0.0950888 0.205397)
(0.330769 0.143779 0.214345)
(0.449259 -0.108403 0.246921)
(0.360333 0.0283967 0.489059)
(0.331414 0.0440416 0.204739)
(0.413487 0.33997 0.282957)
(0.639764 0.244862 0.414791)
(0.328554 0.0414764 0.31787)
(0.267534 0.0593711 0.250672)
(0.259791 0.049681 0.234431)
(0.267549 0.0433057 0.228219)
(0.239627 0.0521017 0.217799)
(0.136802 0.0426959 0.452953)
(0.26409 0.0709864 0.218487)
(0.280888 0.0607383 0.239077)
(0.358339 0.113379 0.320971)
(0.428126 0.25253 0.404573)
(0.263302 0.327905 0.139736)
(0.263909 0.118438 0.288788)
(0.674728 0.210633 0.214141)
(0.335704 0.163285 0.289851)
(0.268374 0.108297 0.305319)
(0.123352 0.0821846 0.0952599)
(0.180966 0.140834 0.152776)
(0.108913 0.0825881 0.0770755)
(0.158166 0.0858329 0.12402)
(0.0962356 0.11892 0.108483)
(0.191556 0.0850964 0.181497)
(0.106003 0.0793153 0.108235)
(0.0914071 0.0735329 0.106378)
(0.127175 -0.00727385 0.141152)
(0.131354 -0.00124203 0.144305)
(0.119867 -0.0123699 0.141939)
(0.0499018 -0.00456958 0.119573)
(0.0943654 -0.0404163 0.18594)
(0.199378 -0.000887034 0.192242)
(0.159317 -0.12866 0.14664)
(0.219593 -0.0175996 0.205964)
(0.226342 0.04526 0.1607)
(0.219183 -0.040782 0.226804)
(0.147913 0.000213043 0.126184)
(0.218313 0.0146835 0.196159)
(0.288768 0.220507 0.414495)
(0.19997 0.0774575 0.255515)
(-0.21506 -0.206432 -1.35934)
(-0.252922 -0.204073 -1.1842)
(-0.191714 -0.248124 -1.203)
(-0.157107 -0.222985 -1.18745)
(0.0388841 -0.00613547 0.0444552)
(-0.178191 -0.206199 -1.20713)
(-0.0524579 0.00384208 0.124151)
(-0.0405267 -0.00156836 0.115159)
(-0.0466417 -0.00525395 0.123)
(-0.040422 0.000501376 0.116963)
(-0.0475078 -0.00300901 0.117226)
(-0.250068 -0.210982 -0.919788)
(-0.252443 -0.190278 -0.823302)
(-0.222769 -0.294615 -0.857685)
(-0.255721 -0.241696 -0.916882)
(-0.340975 -0.327991 -1.3025)
(-0.266545 -0.278633 -0.784415)
(-0.240137 -0.297209 -0.931085)
(-0.230023 -0.24142 -0.834039)
(-0.234136 -0.28348 -0.823607)
(-0.189487 -0.310022 -0.79888)
(-0.258135 -0.296083 -0.731774)
(-0.174381 -0.290613 -0.722315)
(-0.2171 -0.329762 -0.698667)
(-0.191117 -0.264695 -0.768366)
(-0.220597 -0.324506 -0.785274)
(-0.168157 -0.333497 -0.755486)
(-0.164642 -0.312712 -0.680047)
(-0.24162 -0.28337 -1.00187)
(-0.148198 -0.00662194 0.182504)
(-0.139844 -0.0212444 0.174476)
(-0.163794 -0.015963 0.199739)
(-0.154495 -0.0217285 0.176534)
(-0.142673 -0.00897359 0.180722)
(-0.137218 -0.015741 0.174374)
(-0.18198 -0.0174162 0.206357)
(-0.163332 -0.0111398 0.20565)
(-0.131328 -0.0148646 0.164714)
(-0.134274 -0.313223 -0.687416)
(-0.0153244 -0.264105 -0.596047)
(-0.132672 -0.351784 -0.662074)
(0.0142568 -0.491466 -0.792443)
(-0.0610076 -0.38671 -0.631964)
(-0.520673 -0.949846 0.374809)
(-0.518845 -1.09623 0.301589)
(-0.514901 -0.930771 0.349768)
(-0.559381 -1.02878 0.37778)
(-0.568785 -0.948034 0.524748)
(-0.597467 -1.03641 0.396719)
(-0.173603 -0.0601858 0.224611)
(-0.161461 -0.0561299 0.207963)
(-0.169578 -0.0553292 0.212263)
(-0.178942 -0.0494505 0.213658)
(-0.159776 -0.0614988 0.203816)
(-0.175694 -0.0572695 0.221188)
(-0.199309 -0.0544502 0.242287)
(-0.159797 -0.0640606 0.215557)
(-0.15326 -0.0727238 0.193521)
(-0.157267 -0.0690363 0.200174)
(-0.155162 -0.0699302 0.201275)
(-0.351321 -0.579209 0.247162)
(-0.304275 -0.544225 0.286301)
(-0.282573 -0.522086 0.122725)
(-0.258313 -0.393325 0.13666)
(-0.341538 -0.562442 0.184321)
(-0.368791 -0.657523 -0.206924)
(-0.33535 -0.506656 0.169317)
(-0.26996 -0.481201 0.126066)
(-0.168523 -0.348865 -0.0130139)
(-0.398037 -0.335042 0.271225)
(-0.35382 -0.288094 0.131115)
(-0.407113 -0.311202 0.198815)
(-0.423854 -0.328418 0.322341)
(-0.201313 -0.184721 -0.300349)
(-0.0656154 -0.767342 -0.261796)
(-0.232768 -0.763863 -0.151604)
(-0.216225 -0.683761 -0.224357)
(-0.298135 -0.873932 0.000867057)
(-0.301498 -0.808298 -0.124192)
(-0.0618408 -0.118395 -0.300841)
(-0.270314 -0.84369 0.0107281)
(-0.307665 -0.912705 -0.00542795)
(-0.304083 -0.619759 -0.040731)
(-0.101907 -0.136278 -0.229314)
(-0.064189 -0.0475396 -0.124162)
(-0.225372 -0.388695 0.261006)
(-0.162752 -0.423017 0.115279)
(-0.051782 -0.151483 0.220752)
(-0.24673 -0.390009 0.335049)
(-0.289703 -0.541676 0.414415)
(-7.93099e-06 -1.5001e-06 -4.28004e-06)
(-3.83461e-06 -6.53964e-06 6.79648e-08)
(-2.19777e-05 5.49343e-06 -2.77673e-06)
(0.083425 0.365268 -1.72106)
(0.689579 0.828177 -1.54238)
(0.356109 0.373013 -1.92534)
(-0.138644 -0.204604 -0.925339)
(-0.29325 0.0829051 -0.455288)
(-0.159114 -0.380085 -0.450822)
(0.5035 0.22637 -1.24099)
(0.371449 0.182993 -1.15875)
(0.342762 0.211878 -1.16051)
(0.353602 0.195141 -1.21545)
(0.408489 0.128818 -1.19536)
(0.331559 0.189898 -1.17022)
(0.391781 0.159616 -1.15408)
(0.396904 0.188864 -1.19794)
(0.320221 0.216027 -1.21127)
(0.462689 0.295982 -1.19069)
(0.305669 0.0709389 -1.10356)
(0.461088 0.281311 -1.14756)
(0.523099 0.332599 -1.13376)
(0.527673 0.26007 -1.22815)
(0.477032 0.254367 -1.19016)
(0.53604 0.328853 -1.17901)
(0.515287 0.319438 -1.18641)
(0.504845 0.335492 -1.17074)
(0.494651 0.272192 -1.12601)
(0.497142 0.252996 -1.18058)
(0.532457 0.27387 -1.20955)
(0.480814 0.247685 -1.12679)
(0.739142 0.471111 -1.27763)